  81
   1   1
     4.198896470302641    -0.000000000000000     0.000000000000000
    -0.000000000000000     4.198896470302642     0.000000000000000
     0.000000000000000     0.000000000000000     4.198896470302641
   1   2
     0.101241311151250    -0.014727531650206    -0.014727531650206
     0.014727531650206    -0.102542266992634    -0.168210803749342
     0.014727531650206    -0.168210803749342    -0.102542266992634
   1   3
     0.101241311151251     0.014727531650206     0.014727531650206
    -0.014727531650206    -0.102542266992634    -0.168210803749342
    -0.014727531650206    -0.168210803749342    -0.102542266992634
   1   4
    -0.102542266992634     0.014727531650206    -0.168210803749342
    -0.014727531650206     0.101241311151250    -0.014727531650206
    -0.168210803749342     0.014727531650206    -0.102542266992634
   1   5
    -0.015173567322787     0.009681264106268    -0.009681264106268
     0.009681264106268    -0.015173567322787    -0.009681264106268
    -0.009681264106268    -0.009681264106268    -0.015173567322787
   1   6
    -0.102542266992634     0.168210803749342    -0.014727531650206
     0.168210803749342    -0.102542266992634     0.014727531650206
     0.014727531650206    -0.014727531650206     0.101241311151250
   1   7
    -0.102542266992634    -0.014727531650206    -0.168210803749342
     0.014727531650206     0.101241311151250     0.014727531650206
    -0.168210803749342    -0.014727531650206    -0.102542266992634
   1   8
    -0.102542266992634     0.168210803749342     0.014727531650206
     0.168210803749342    -0.102542266992634    -0.014727531650206
    -0.014727531650206     0.014727531650206     0.101241311151250
   1   9
    -0.015173567322787     0.009681264106268    -0.009681264106268
     0.009681264106268    -0.015173567322787    -0.009681264106268
    -0.009681264106268    -0.009681264106268    -0.015173567322787
   1  10
    -0.102542266992634    -0.168210803749342     0.014727531650206
    -0.168210803749342    -0.102542266992634     0.014727531650206
    -0.014727531650206    -0.014727531650206     0.101241311151250
   1  11
    -0.015173567322787    -0.009681264106268     0.009681264106268
    -0.009681264106268    -0.015173567322787    -0.009681264106268
     0.009681264106268    -0.009681264106268    -0.015173567322787
   1  12
    -0.102542266992634    -0.014727531650206     0.168210803749342
     0.014727531650206     0.101241311151251    -0.014727531650206
     0.168210803749342     0.014727531650206    -0.102542266992634
   1  13
    -0.015173567322787    -0.009681264106268    -0.009681264106268
    -0.009681264106268    -0.015173567322787     0.009681264106268
    -0.009681264106268     0.009681264106268    -0.015173567322787
   1  14
    -0.015173567322787     0.009681264106268     0.009681264106268
     0.009681264106268    -0.015173567322787     0.009681264106268
     0.009681264106268     0.009681264106268    -0.015173567322787
   1  15
    -0.040105445320643     0.000000000000000    -0.000000000000000
    -0.000000000000000     0.010317985692379     0.000000000000000
    -0.000000000000000    -0.000000000000000     0.010317985692379
   1  16
     0.101241311151250     0.014727531650206    -0.014727531650206
    -0.014727531650206    -0.102542266992634     0.168210803749342
     0.014727531650206     0.168210803749342    -0.102542266992634
   1  17
     0.010317985692379     0.000000000000000     0.000000000000000
    -0.000000000000000    -0.040105445320643     0.000000000000000
    -0.000000000000000    -0.000000000000000     0.010317985692379
   1  18
     0.010317985692379     0.000000000000000    -0.000000000000000
    -0.000000000000000     0.010317985692379    -0.000000000000000
     0.000000000000000    -0.000000000000000    -0.040105445320643
   1  19
    -0.102542266992634    -0.168210803749342    -0.014727531650206
    -0.168210803749342    -0.102542266992634    -0.014727531650206
     0.014727531650206     0.014727531650206     0.101241311151250
   1  20
    -0.102542266992634     0.014727531650206     0.168210803749342
    -0.014727531650206     0.101241311151250     0.014727531650206
     0.168210803749342    -0.014727531650206    -0.102542266992634
   1  21
    -0.015173567322787    -0.009681264106268     0.009681264106268
    -0.009681264106268    -0.015173567322787    -0.009681264106268
     0.009681264106268    -0.009681264106268    -0.015173567322787
   1  22
     0.101241311151251    -0.014727531650206     0.014727531650206
     0.014727531650206    -0.102542266992634     0.168210803749342
    -0.014727531650206     0.168210803749342    -0.102542266992634
   1  23
     0.010317985692379    -0.000000000000000    -0.000000000000000
    -0.000000000000000     0.010317985692379     0.000000000000000
     0.000000000000000    -0.000000000000000    -0.040105445320643
   1  24
     0.010317985692379     0.000000000000000     0.000000000000000
     0.000000000000000    -0.040105445320643    -0.000000000000000
    -0.000000000000000    -0.000000000000000     0.010317985692379
   1  25
    -0.015173567322787    -0.009681264106268    -0.009681264106268
    -0.009681264106268    -0.015173567322787     0.009681264106268
    -0.009681264106268     0.009681264106268    -0.015173567322787
   1  26
    -0.040105445320643    -0.000000000000000    -0.000000000000000
     0.000000000000000     0.010317985692379     0.000000000000000
    -0.000000000000000     0.000000000000000     0.010317985692379
   1  27
    -0.015173567322787     0.009681264106268     0.009681264106268
     0.009681264106268    -0.015173567322787     0.009681264106268
     0.009681264106268     0.009681264106268    -0.015173567322787
   1  28
    -0.474521291137654    -0.147891118120123    -0.147891118120123
    -0.147891118120123    -0.474521291137654    -0.147891118120123
    -0.147891118120123    -0.147891118120123    -0.474521291137654
   1  29
     0.010358622508013    -0.000000000000000    -0.000000000000000
     0.000000000000000     0.062599317948685     0.053684253934464
     0.000000000000000     0.053684253934464     0.062599317948685
   1  30
    -0.474521291137654     0.147891118120123     0.147891118120123
     0.147891118120123    -0.474521291137654    -0.147891118120123
     0.147891118120123    -0.147891118120123    -0.474521291137654
   1  31
     0.062599317948685     0.000000000000000     0.053684253934464
    -0.000000000000000     0.010358622508013     0.000000000000000
     0.053684253934464    -0.000000000000000     0.062599317948685
   1  32
     0.062599317948685    -0.053684253934464    -0.000000000000000
    -0.053684253934464     0.062599317948685     0.000000000000000
     0.000000000000000    -0.000000000000000     0.010358622508013
   1  33
     0.060890064081862    -0.014755108814672     0.014755108814672
    -0.031151942798564    -0.038042571499163    -0.041567625685442
     0.031151942798564    -0.041567625685442    -0.038042571499163
   1  34
    -0.474521291137654     0.147891118120123    -0.147891118120123
     0.147891118120123    -0.474521291137654     0.147891118120123
    -0.147891118120123     0.147891118120123    -0.474521291137654
   1  35
    -0.038042571499163    -0.031151942798564    -0.041567625685442
    -0.014755108814672     0.060890064081862     0.014755108814672
    -0.041567625685442     0.031151942798564    -0.038042571499163
   1  36
    -0.038042571499163     0.041567625685442     0.031151942798564
     0.041567625685442    -0.038042571499163     0.031151942798564
     0.014755108814672     0.014755108814672     0.060890064081862
   1  37
     0.062599317948685     0.053684253934464    -0.000000000000000
     0.053684253934464     0.062599317948685     0.000000000000000
     0.000000000000000    -0.000000000000000     0.010358622508013
   1  38
     0.062599317948685     0.000000000000000    -0.053684253934464
    -0.000000000000000     0.010358622508013     0.000000000000000
    -0.053684253934464    -0.000000000000000     0.062599317948685
   1  39
     0.060890064081862     0.014755108814672    -0.014755108814672
     0.031151942798564    -0.038042571499163    -0.041567625685442
    -0.031151942798564    -0.041567625685442    -0.038042571499163
   1  40
     0.010358622508013     0.000000000000000    -0.000000000000000
    -0.000000000000000     0.062599317948685    -0.053684253934464
     0.000000000000000    -0.053684253934464     0.062599317948685
   1  41
     0.011029666843360    -0.011256344461361    -0.011256344461361
    -0.011256344461361     0.011029666843360    -0.011256344461361
    -0.011256344461361    -0.011256344461361     0.011029666843359
   1  42
     0.011029666843360     0.011256344461361     0.011256344461361
     0.011256344461361     0.011029666843360    -0.011256344461361
     0.011256344461361    -0.011256344461361     0.011029666843359
   1  43
    -0.038042571499163     0.031151942798564    -0.041567625685442
     0.014755108814672     0.060890064081862    -0.014755108814672
    -0.041567625685442    -0.031151942798564    -0.038042571499163
   1  44
     0.011029666843360     0.011256344461361    -0.011256344461361
     0.011256344461361     0.011029666843360     0.011256344461361
    -0.011256344461361     0.011256344461361     0.011029666843359
   1  45
    -0.038042571499163     0.041567625685442    -0.031151942798564
     0.041567625685442    -0.038042571499163    -0.031151942798564
    -0.014755108814672    -0.014755108814672     0.060890064081862
   1  46
    -0.474521291137654    -0.147891118120123     0.147891118120123
    -0.147891118120123    -0.474521291137654     0.147891118120123
     0.147891118120123     0.147891118120123    -0.474521291137654
   1  47
    -0.038042571499163    -0.041567625685442    -0.031151942798564
    -0.041567625685442    -0.038042571499163     0.031151942798564
    -0.014755108814672     0.014755108814672     0.060890064081862
   1  48
    -0.038042571499163     0.031151942798564     0.041567625685442
     0.014755108814672     0.060890064081862     0.014755108814672
     0.041567625685442     0.031151942798564    -0.038042571499163
   1  49
    -0.038042571499163    -0.041567625685442     0.031151942798564
    -0.041567625685442    -0.038042571499163    -0.031151942798564
     0.014755108814672    -0.014755108814672     0.060890064081862
   1  50
     0.011029666843360    -0.011256344461361     0.011256344461361
    -0.011256344461361     0.011029666843360     0.011256344461361
     0.011256344461361     0.011256344461361     0.011029666843359
   1  51
    -0.038042571499163    -0.031151942798564     0.041567625685442
    -0.014755108814672     0.060890064081862    -0.014755108814672
     0.041567625685442    -0.031151942798564    -0.038042571499163
   1  52
     0.060890064081862     0.014755108814672     0.014755108814672
     0.031151942798564    -0.038042571499163     0.041567625685442
     0.031151942798564     0.041567625685442    -0.038042571499163
   1  53
     0.060890064081862    -0.014755108814672    -0.014755108814672
    -0.031151942798564    -0.038042571499163     0.041567625685442
    -0.031151942798564     0.041567625685442    -0.038042571499163
   1  54
    -0.005681034163032     0.000000000000000    -0.000000000000000
     0.000000000000000    -0.005681034163032     0.000000000000000
    -0.000000000000000    -0.000000000000000    -0.005681034163032
   1  55
     0.001286481789100     0.000000000000000    -0.000000000000000
    -0.000000000000000     0.001286481789100     0.000000000000000
    -0.000000000000000    -0.000000000000000     0.001286481789100
   1  56
     0.033702201182340    -0.012078709647881    -0.012078709647881
    -0.017096516143876    -0.013070702684459     0.013408070396512
    -0.017096516143876     0.013408070396512    -0.013070702684459
   1  57
     0.033702201182340     0.012078709647881     0.012078709647881
     0.017096516143876    -0.013070702684459     0.013408070396512
     0.017096516143876     0.013408070396512    -0.013070702684459
   1  58
    -0.013070702684459    -0.017096516143876     0.013408070396512
    -0.012078709647881     0.033702201182340    -0.012078709647881
     0.013408070396512    -0.017096516143876    -0.013070702684459
   1  59
     0.005209686987818    -0.003600145788064     0.003600145788064
    -0.003600145788064     0.005209686987818     0.003600145788064
     0.003600145788064     0.003600145788064     0.005209686987818
   1  60
    -0.013070702684459    -0.013408070396512     0.017096516143876
    -0.013408070396512    -0.013070702684459    -0.017096516143876
     0.012078709647881    -0.012078709647881     0.033702201182340
   1  61
    -0.013070702684459     0.017096516143876     0.013408070396512
     0.012078709647881     0.033702201182340     0.012078709647881
     0.013408070396512     0.017096516143876    -0.013070702684459
   1  62
    -0.013070702684459    -0.013408070396512    -0.017096516143876
    -0.013408070396512    -0.013070702684459     0.017096516143876
    -0.012078709647881     0.012078709647881     0.033702201182340
   1  63
    -0.525632344211669    -0.470348869292284     0.470348869292283
    -0.470348869292284    -0.525632344211670     0.470348869292284
     0.470348869292284     0.470348869292284    -0.525632344211669
   1  64
    -0.013070702684459     0.013408070396512    -0.017096516143876
     0.013408070396512    -0.013070702684459    -0.017096516143876
    -0.012078709647881    -0.012078709647881     0.033702201182340
   1  65
     0.005209686987818     0.003600145788064    -0.003600145788064
     0.003600145788064     0.005209686987818     0.003600145788064
    -0.003600145788064     0.003600145788064     0.005209686987818
   1  66
    -0.013070702684459     0.017096516143876    -0.013408070396512
     0.012078709647881     0.033702201182340    -0.012078709647881
    -0.013408070396512    -0.017096516143876    -0.013070702684459
   1  67
     0.005209686987818     0.003600145788064     0.003600145788064
     0.003600145788064     0.005209686987818    -0.003600145788064
     0.003600145788064    -0.003600145788064     0.005209686987818
   1  68
     0.005209686987818    -0.003600145788064    -0.003600145788064
    -0.003600145788064     0.005209686987818    -0.003600145788064
    -0.003600145788064    -0.003600145788064     0.005209686987818
   1  69
     0.004458916362894     0.000000000000000    -0.000000000000000
    -0.000000000000000     0.016839472217994    -0.017157238938710
    -0.000000000000000    -0.017157238938710     0.016839472217993
   1  70
     0.033702201182340     0.012078709647881    -0.012078709647881
     0.017096516143876    -0.013070702684459    -0.013408070396512
    -0.017096516143876    -0.013408070396512    -0.013070702684459
   1  71
     0.016839472217994     0.000000000000000    -0.017157238938710
    -0.000000000000000     0.004458916362894     0.000000000000000
    -0.017157238938710    -0.000000000000000     0.016839472217993
   1  72
     0.016839472217994     0.017157238938710    -0.000000000000000
     0.017157238938710     0.016839472217994     0.000000000000000
    -0.000000000000000    -0.000000000000000     0.004458916362894
   1  73
    -0.013070702684459     0.013408070396512     0.017096516143876
     0.013408070396512    -0.013070702684459     0.017096516143876
     0.012078709647881     0.012078709647881     0.033702201182340
   1  74
    -0.013070702684459    -0.017096516143876    -0.013408070396512
    -0.012078709647881     0.033702201182340     0.012078709647881
    -0.013408070396512     0.017096516143876    -0.013070702684459
   1  75
    -0.525632344211669     0.470348869292284    -0.470348869292283
     0.470348869292284    -0.525632344211670     0.470348869292284
    -0.470348869292284     0.470348869292284    -0.525632344211669
   1  76
     0.033702201182340    -0.012078709647881     0.012078709647881
    -0.017096516143876    -0.013070702684459    -0.013408070396512
     0.017096516143876    -0.013408070396512    -0.013070702684459
   1  77
     0.016839472217993    -0.017157238938710     0.000000000000000
    -0.017157238938710     0.016839472217994     0.000000000000000
     0.000000000000000     0.000000000000000     0.004458916362894
   1  78
     0.016839472217993     0.000000000000000     0.017157238938710
    -0.000000000000000     0.004458916362894     0.000000000000000
     0.017157238938710    -0.000000000000000     0.016839472217993
   1  79
    -0.525632344211670     0.470348869292284     0.470348869292283
     0.470348869292284    -0.525632344211670    -0.470348869292284
     0.470348869292283    -0.470348869292284    -0.525632344211669
   1  80
     0.004458916362894     0.000000000000000    -0.000000000000000
    -0.000000000000000     0.016839472217994     0.017157238938710
    -0.000000000000000     0.017157238938710     0.016839472217993
   1  81
    -0.525632344211669    -0.470348869292284    -0.470348869292283
    -0.470348869292284    -0.525632344211670    -0.470348869292284
    -0.470348869292283    -0.470348869292284    -0.525632344211669
   2   1
     0.101241311151250     0.014727531650206     0.014727531650206
    -0.014727531650206    -0.102542266992634    -0.168210803749342
    -0.014727531650206    -0.168210803749342    -0.102542266992634
   2   2
     4.198896470302641    -0.000000000000000    -0.000000000000000
    -0.000000000000000     4.198896470302642    -0.000000000000000
    -0.000000000000000    -0.000000000000000     4.198896470302641
   2   3
     0.101241311151251    -0.014727531650206    -0.014727531650206
     0.014727531650206    -0.102542266992634    -0.168210803749342
     0.014727531650206    -0.168210803749342    -0.102542266992634
   2   4
    -0.102542266992634     0.168210803749342    -0.014727531650206
     0.168210803749342    -0.102542266992634     0.014727531650206
     0.014727531650206    -0.014727531650206     0.101241311151251
   2   5
    -0.102542266992634     0.014727531650206    -0.168210803749342
    -0.014727531650206     0.101241311151250    -0.014727531650206
    -0.168210803749342     0.014727531650206    -0.102542266992634
   2   6
    -0.015173567322787     0.009681264106268    -0.009681264106268
     0.009681264106268    -0.015173567322787    -0.009681264106268
    -0.009681264106268    -0.009681264106268    -0.015173567322787
   2   7
    -0.015173567322787     0.009681264106268    -0.009681264106268
     0.009681264106268    -0.015173567322787    -0.009681264106268
    -0.009681264106268    -0.009681264106268    -0.015173567322787
   2   8
    -0.102542266992634    -0.014727531650206    -0.168210803749342
     0.014727531650206     0.101241311151250     0.014727531650206
    -0.168210803749342    -0.014727531650206    -0.102542266992634
   2   9
    -0.102542266992634     0.168210803749342     0.014727531650206
     0.168210803749342    -0.102542266992634    -0.014727531650206
    -0.014727531650206     0.014727531650206     0.101241311151250
   2  10
    -0.102542266992634    -0.014727531650206     0.168210803749342
     0.014727531650206     0.101241311151250    -0.014727531650206
     0.168210803749342     0.014727531650206    -0.102542266992634
   2  11
    -0.102542266992634    -0.168210803749342     0.014727531650206
    -0.168210803749342    -0.102542266992634     0.014727531650206
    -0.014727531650206    -0.014727531650206     0.101241311151250
   2  12
    -0.015173567322787    -0.009681264106268     0.009681264106268
    -0.009681264106268    -0.015173567322787    -0.009681264106268
     0.009681264106268    -0.009681264106268    -0.015173567322787
   2  13
    -0.040105445320643     0.000000000000000     0.000000000000000
     0.000000000000000     0.010317985692379    -0.000000000000000
    -0.000000000000000     0.000000000000000     0.010317985692379
   2  14
    -0.015173567322787    -0.009681264106268    -0.009681264106268
    -0.009681264106268    -0.015173567322787     0.009681264106268
    -0.009681264106268     0.009681264106268    -0.015173567322787
   2  15
    -0.015173567322787     0.009681264106268     0.009681264106268
     0.009681264106268    -0.015173567322787     0.009681264106268
     0.009681264106268     0.009681264106268    -0.015173567322787
   2  16
     0.010317985692379     0.000000000000000     0.000000000000000
    -0.000000000000000     0.010317985692379    -0.000000000000000
     0.000000000000000    -0.000000000000000    -0.040105445320643
   2  17
     0.101241311151250     0.014727531650206    -0.014727531650206
    -0.014727531650206    -0.102542266992634     0.168210803749342
     0.014727531650206     0.168210803749342    -0.102542266992634
   2  18
     0.010317985692379     0.000000000000000     0.000000000000000
    -0.000000000000000    -0.040105445320643    -0.000000000000000
     0.000000000000000     0.000000000000000     0.010317985692379
   2  19
    -0.015173567322787    -0.009681264106268     0.009681264106268
    -0.009681264106268    -0.015173567322787    -0.009681264106268
     0.009681264106268    -0.009681264106268    -0.015173567322787
   2  20
    -0.102542266992634    -0.168210803749343    -0.014727531650206
    -0.168210803749342    -0.102542266992634    -0.014727531650206
     0.014727531650206     0.014727531650206     0.101241311151250
   2  21
    -0.102542266992634     0.014727531650206     0.168210803749342
    -0.014727531650206     0.101241311151250     0.014727531650206
     0.168210803749342    -0.014727531650206    -0.102542266992634
   2  22
     0.010317985692379     0.000000000000000     0.000000000000000
    -0.000000000000000    -0.040105445320643    -0.000000000000000
    -0.000000000000000     0.000000000000000     0.010317985692379
   2  23
     0.101241311151250    -0.014727531650206     0.014727531650206
     0.014727531650206    -0.102542266992634     0.168210803749342
    -0.014727531650206     0.168210803749342    -0.102542266992634
   2  24
     0.010317985692379     0.000000000000000     0.000000000000000
     0.000000000000000     0.010317985692379    -0.000000000000000
    -0.000000000000000     0.000000000000000    -0.040105445320643
   2  25
    -0.015173567322787     0.009681264106268     0.009681264106268
     0.009681264106268    -0.015173567322787     0.009681264106268
     0.009681264106268     0.009681264106268    -0.015173567322787
   2  26
    -0.015173567322787    -0.009681264106268    -0.009681264106268
    -0.009681264106268    -0.015173567322787     0.009681264106268
    -0.009681264106268     0.009681264106268    -0.015173567322787
   2  27
    -0.040105445320643     0.000000000000000     0.000000000000000
    -0.000000000000000     0.010317985692379     0.000000000000000
     0.000000000000000     0.000000000000000     0.010317985692379
   2  28
    -0.474521291137654     0.147891118120123     0.147891118120123
     0.147891118120123    -0.474521291137654    -0.147891118120123
     0.147891118120123    -0.147891118120123    -0.474521291137654
   2  29
    -0.474521291137654    -0.147891118120123    -0.147891118120123
    -0.147891118120123    -0.474521291137654    -0.147891118120123
    -0.147891118120123    -0.147891118120123    -0.474521291137654
   2  30
     0.010358622508013    -0.000000000000000     0.000000000000000
     0.000000000000000     0.062599317948685     0.053684253934464
    -0.000000000000000     0.053684253934464     0.062599317948685
   2  31
     0.060890064081862    -0.014755108814672     0.014755108814672
    -0.031151942798564    -0.038042571499163    -0.041567625685442
     0.031151942798564    -0.041567625685442    -0.038042571499163
   2  32
     0.062599317948685    -0.000000000000000     0.053684253934464
    -0.000000000000000     0.010358622508013    -0.000000000000000
     0.053684253934464    -0.000000000000000     0.062599317948685
   2  33
     0.062599317948685    -0.053684253934464     0.000000000000000
    -0.053684253934464     0.062599317948685    -0.000000000000000
    -0.000000000000000     0.000000000000000     0.010358622508013
   2  34
    -0.038042571499163     0.041567625685442     0.031151942798564
     0.041567625685442    -0.038042571499163     0.031151942798564
     0.014755108814672     0.014755108814672     0.060890064081862
   2  35
    -0.474521291137654     0.147891118120123    -0.147891118120123
     0.147891118120123    -0.474521291137654     0.147891118120123
    -0.147891118120123     0.147891118120123    -0.474521291137654
   2  36
    -0.038042571499163    -0.031151942798564    -0.041567625685442
    -0.014755108814672     0.060890064081862     0.014755108814672
    -0.041567625685442     0.031151942798564    -0.038042571499163
   2  37
     0.060890064081862     0.014755108814672    -0.014755108814672
     0.031151942798564    -0.038042571499163    -0.041567625685442
    -0.031151942798564    -0.041567625685442    -0.038042571499163
   2  38
     0.062599317948685     0.053684253934464     0.000000000000000
     0.053684253934464     0.062599317948685     0.000000000000000
    -0.000000000000000     0.000000000000000     0.010358622508013
   2  39
     0.062599317948685     0.000000000000000    -0.053684253934464
    -0.000000000000000     0.010358622508013     0.000000000000000
    -0.053684253934464     0.000000000000000     0.062599317948685
   2  40
     0.011029666843359     0.011256344461361     0.011256344461361
     0.011256344461361     0.011029666843359    -0.011256344461361
     0.011256344461361    -0.011256344461361     0.011029666843360
   2  41
     0.010358622508013     0.000000000000000    -0.000000000000000
    -0.000000000000000     0.062599317948685    -0.053684253934464
    -0.000000000000000    -0.053684253934464     0.062599317948685
   2  42
     0.011029666843359    -0.011256344461361    -0.011256344461361
    -0.011256344461361     0.011029666843360    -0.011256344461361
    -0.011256344461361    -0.011256344461361     0.011029666843359
   2  43
    -0.038042571499163     0.041567625685442    -0.031151942798564
     0.041567625685442    -0.038042571499163    -0.031151942798564
    -0.014755108814672    -0.014755108814672     0.060890064081862
   2  44
    -0.038042571499163     0.031151942798564    -0.041567625685442
     0.014755108814672     0.060890064081862    -0.014755108814672
    -0.041567625685442    -0.031151942798564    -0.038042571499163
   2  45
     0.011029666843359     0.011256344461361    -0.011256344461361
     0.011256344461361     0.011029666843360     0.011256344461361
    -0.011256344461361     0.011256344461361     0.011029666843360
   2  46
    -0.038042571499163     0.031151942798564     0.041567625685442
     0.014755108814672     0.060890064081862     0.014755108814672
     0.041567625685442     0.031151942798564    -0.038042571499163
   2  47
    -0.474521291137654    -0.147891118120123     0.147891118120123
    -0.147891118120123    -0.474521291137654     0.147891118120123
     0.147891118120123     0.147891118120123    -0.474521291137654
   2  48
    -0.038042571499163    -0.041567625685442    -0.031151942798564
    -0.041567625685442    -0.038042571499163     0.031151942798564
    -0.014755108814672     0.014755108814672     0.060890064081862
   2  49
    -0.038042571499163    -0.031151942798564     0.041567625685442
    -0.014755108814672     0.060890064081862    -0.014755108814672
     0.041567625685442    -0.031151942798564    -0.038042571499163
   2  50
    -0.038042571499163    -0.041567625685442     0.031151942798564
    -0.041567625685442    -0.038042571499163    -0.031151942798564
     0.014755108814672    -0.014755108814672     0.060890064081862
   2  51
     0.011029666843359    -0.011256344461361     0.011256344461361
    -0.011256344461361     0.011029666843360     0.011256344461361
     0.011256344461361     0.011256344461361     0.011029666843359
   2  52
    -0.005681034163032     0.000000000000000     0.000000000000000
    -0.000000000000000    -0.005681034163032     0.000000000000000
    -0.000000000000000     0.000000000000000    -0.005681034163032
   2  53
     0.060890064081862     0.014755108814672     0.014755108814672
     0.031151942798564    -0.038042571499163     0.041567625685442
     0.031151942798564     0.041567625685442    -0.038042571499163
   2  54
     0.060890064081862    -0.014755108814672    -0.014755108814672
    -0.031151942798564    -0.038042571499163     0.041567625685442
    -0.031151942798564     0.041567625685442    -0.038042571499163
   2  55
     0.033702201182340     0.012078709647881     0.012078709647881
     0.017096516143876    -0.013070702684459     0.013408070396512
     0.017096516143876     0.013408070396512    -0.013070702684459
   2  56
     0.001286481789100     0.000000000000000     0.000000000000000
    -0.000000000000000     0.001286481789100     0.000000000000000
     0.000000000000000     0.000000000000000     0.001286481789100
   2  57
     0.033702201182340    -0.012078709647881    -0.012078709647881
    -0.017096516143876    -0.013070702684459     0.013408070396512
    -0.017096516143876     0.013408070396512    -0.013070702684459
   2  58
    -0.013070702684459    -0.013408070396512     0.017096516143876
    -0.013408070396512    -0.013070702684459    -0.017096516143876
     0.012078709647881    -0.012078709647881     0.033702201182340
   2  59
    -0.013070702684459    -0.017096516143876     0.013408070396512
    -0.012078709647881     0.033702201182340    -0.012078709647881
     0.013408070396512    -0.017096516143876    -0.013070702684459
   2  60
     0.005209686987818    -0.003600145788064     0.003600145788064
    -0.003600145788064     0.005209686987818     0.003600145788064
     0.003600145788064     0.003600145788064     0.005209686987818
   2  61
    -0.525632344211669    -0.470348869292284     0.470348869292284
    -0.470348869292283    -0.525632344211669     0.470348869292284
     0.470348869292284     0.470348869292284    -0.525632344211669
   2  62
    -0.013070702684459     0.017096516143876     0.013408070396512
     0.012078709647881     0.033702201182340     0.012078709647881