 2139
 
    1
  0.000  0.000  0.000
  0.000  0.000  0.000
 1 1 1
 1 1 1    0.0000000000E+00
 1 1 2    0.0000000000E+00
 1 1 3    0.0000000000E+00
 1 2 1    0.0000000000E+00
 1 2 2    0.0000000000E+00
 1 2 3   -0.3726085318E+00
 1 3 1    0.0000000000E+00
 1 3 2   -0.3726085318E+00
 1 3 3    0.0000000000E+00
 2 1 1    0.0000000000E+00
 2 1 2    0.0000000000E+00
 2 1 3   -0.3726085318E+00
 2 2 1    0.0000000000E+00
 2 2 2    0.0000000000E+00
 2 2 3    0.0000000000E+00
 2 3 1   -0.3726085318E+00
 2 3 2    0.0000000000E+00
 2 3 3    0.0000000000E+00
 3 1 1    0.0000000000E+00
 3 1 2   -0.3726085318E+00
 3 1 3    0.0000000000E+00
 3 2 1   -0.3726085318E+00
 3 2 2    0.0000000000E+00
 3 2 3    0.0000000000E+00
 3 3 1    0.0000000000E+00
 3 3 2    0.0000000000E+00
 3 3 3    0.0000000000E+00
 
    2
  0.000  0.000  0.000
  0.000  0.000  0.000
 1 1 2
 1 1 1   -0.5210217671E+00
 1 1 2   -0.9528023999E+00
 1 1 3   -0.9528023999E+00
 1 2 1   -0.8760049022E+00
 1 2 2   -0.8760049022E+00
 1 2 3   -0.1089061956E+01
 1 3 1   -0.8760049022E+00
 1 3 2   -0.1089061956E+01
 1 3 3   -0.8760049022E+00
 2 1 1   -0.8760049022E+00
 2 1 2   -0.8760049022E+00
 2 1 3   -0.1089061956E+01
 2 2 1   -0.9528023999E+00
 2 2 2   -0.5210217671E+00
 2 2 3   -0.9528023999E+00
 2 3 1   -0.1089061956E+01
 2 3 2   -0.8760049022E+00
 2 3 3   -0.8760049022E+00
 3 1 1   -0.8760049022E+00
 3 1 2   -0.1089061956E+01
 3 1 3   -0.8760049022E+00
 3 2 1   -0.1089061956E+01
 3 2 2   -0.8760049022E+00
 3 2 3   -0.8760049022E+00
 3 3 1   -0.9528023999E+00
 3 3 2   -0.9528023999E+00
 3 3 3   -0.5210217671E+00
 
    3
  0.000  0.000  0.000
  0.000  0.000  0.000
 1 1 3
 1 1 1   -0.4496100581E+00
 1 1 2   -0.1007065307E+01
 1 1 3    0.1007065307E+01
 1 2 1   -0.9822004005E+00
 1 2 2   -0.9822004005E+00
 1 2 3    0.1190282540E+01
 1 3 1    0.9822004005E+00
 1 3 2    0.1190282540E+01
 1 3 3   -0.9822004005E+00
 2 1 1   -0.9822004005E+00
 2 1 2   -0.9822004005E+00
 2 1 3    0.1190282540E+01
 2 2 1   -0.1007065307E+01
 2 2 2   -0.4496100581E+00
 2 2 3    0.1007065307E+01
 2 3 1    0.1190282540E+01
 2 3 2    0.9822004005E+00
 2 3 3   -0.9822004005E+00
 3 1 1    0.9822004005E+00
 3 1 2    0.1190282540E+01
 3 1 3   -0.9822004005E+00
 3 2 1    0.1190282540E+01
 3 2 2    0.9822004005E+00
 3 2 3   -0.9822004005E+00
 3 3 1   -0.1007065307E+01
 3 3 2   -0.1007065307E+01
 3 3 3    0.4496100581E+00
 
    4
  0.000  0.000  0.000
  0.000  3.782  3.782
 1 1 1
 1 1 1    0.1110349675E-01
 1 1 2    0.2651152975E-01
 1 1 3    0.2651152975E-01
 1 2 1    0.4382416981E-01
 1 2 2   -0.5334462149E-01
 1 2 3   -0.2085713489E-01
 1 3 1    0.4382416981E-01
 1 3 2   -0.2085713489E-01
 1 3 3   -0.5334462149E-01
 2 1 1    0.4382416981E-01
 2 1 2   -0.5334462149E-01
 2 1 3   -0.2085713489E-01
 2 2 1    0.8279254511E-02
 2 2 2    0.1676175042E-01
 2 2 3   -0.7356041459E-02
 2 3 1    0.4806483338E-01
 2 3 2   -0.5023246416E-01
 2 3 3   -0.5023246416E-01
 3 1 1    0.4382416981E-01
 3 1 2   -0.2085713489E-01
 3 1 3   -0.5334462149E-01
 3 2 1    0.4806483338E-01
 3 2 2   -0.5023246416E-01
 3 2 3   -0.5023246416E-01
 3 3 1    0.8279254511E-02
 3 3 2   -0.7356041459E-02
 3 3 3    0.1676175042E-01
 
    5
  0.000  0.000  0.000
  0.000  3.782  3.782
 1 1 3
 1 1 1   -0.2444191179E-02
 1 1 2    0.2546992421E-02
 1 1 3    0.3711421599E-02
 1 2 1   -0.3241154960E-02
 1 2 2    0.1517071629E-01
 1 2 3    0.4510695022E-02
 1 3 1    0.3949665735E-02
 1 3 2    0.1853497688E-01
 1 3 3    0.3949665735E-02
 2 1 1   -0.3241154960E-02
 2 1 2    0.1517071629E-01
 2 1 3    0.4510695022E-02
 2 2 1    0.1309095991E-01
 2 2 2    0.1741621768E-01
 2 2 3    0.1309095991E-01
 2 3 1    0.4510695022E-02
 2 3 2    0.1517071629E-01
 2 3 3   -0.3241154960E-02
 3 1 1    0.3949665735E-02
 3 1 2    0.1853497688E-01
 3 1 3    0.3949665735E-02
 3 2 1    0.4510695022E-02
 3 2 2    0.1517071629E-01
 3 2 3   -0.3241154960E-02
 3 3 1    0.3711421599E-02
 3 3 2    0.2546992421E-02
 3 3 3   -0.2444191179E-02
 
    6
  0.000  0.000  0.000
  0.000 -3.782 -3.782
 1 1 1
 1 1 1    0.1110349675E-01
 1 1 2   -0.2651152975E-01
 1 1 3   -0.2651152975E-01
 1 2 1   -0.4382416981E-01
 1 2 2   -0.5334462149E-01
 1 2 3   -0.2085713489E-01
 1 3 1   -0.4382416981E-01
 1 3 2   -0.2085713489E-01
 1 3 3   -0.5334462149E-01
 2 1 1   -0.4382416981E-01
 2 1 2   -0.5334462149E-01
 2 1 3   -0.2085713489E-01
 2 2 1    0.8279254511E-02
 2 2 2   -0.1676175042E-01
 2 2 3    0.7356041459E-02
 2 3 1    0.4806483338E-01
 2 3 2    0.5023246416E-01
 2 3 3    0.5023246416E-01
 3 1 1   -0.4382416981E-01
 3 1 2   -0.2085713489E-01
 3 1 3   -0.5334462149E-01
 3 2 1    0.4806483338E-01
 3 2 2    0.5023246416E-01
 3 2 3    0.5023246416E-01
 3 3 1    0.8279254511E-02
 3 3 2    0.7356041459E-02
 3 3 3   -0.1676175042E-01
 
    7
  0.000  0.000  0.000
  0.000 -3.782 -3.782
 1 1 2
 1 1 1   -0.5210217671E+00
 1 1 2    0.9528023999E+00
 1 1 3    0.9528023999E+00
 1 2 1    0.8760049022E+00
 1 2 2   -0.8760049022E+00
 1 2 3   -0.1089061956E+01
 1 3 1    0.8760049022E+00
 1 3 2   -0.1089061956E+01
 1 3 3   -0.8760049022E+00
 2 1 1    0.8760049022E+00
 2 1 2   -0.8760049022E+00
 2 1 3   -0.1089061956E+01
 2 2 1   -0.9528023999E+00
 2 2 2    0.5210217671E+00
 2 2 3    0.9528023999E+00
 2 3 1   -0.1089061956E+01
 2 3 2    0.8760049022E+00
 2 3 3    0.8760049022E+00
 3 1 1    0.8760049022E+00
 3 1 2   -0.1089061956E+01
 3 1 3   -0.8760049022E+00
 3 2 1   -0.1089061956E+01
 3 2 2    0.8760049022E+00
 3 2 3    0.8760049022E+00
 3 3 1   -0.9528023999E+00
 3 3 2    0.9528023999E+00
 3 3 3    0.5210217671E+00
 
    8
  0.000  0.000  0.000
  0.000 -3.782 -3.782
 1 1 3
 1 1 1   -0.2444191179E-02
 1 1 2   -0.3711421599E-02
 1 1 3   -0.2546992421E-02
 1 2 1   -0.3949665735E-02
 1 2 2    0.3949665735E-02
 1 2 3    0.1853497688E-01
 1 3 1    0.3241154960E-02
 1 3 2    0.4510695022E-02
 1 3 3    0.1517071629E-01
 2 1 1   -0.3949665735E-02
 2 1 2    0.3949665735E-02
 2 1 3    0.1853497688E-01
 2 2 1    0.3711421599E-02
 2 2 2    0.2444191179E-02
 2 2 3   -0.2546992421E-02
 2 3 1    0.4510695022E-02
 2 3 2    0.3241154960E-02
 2 3 3   -0.1517071629E-01
 3 1 1    0.3241154960E-02
 3 1 2    0.4510695022E-02
 3 1 3    0.1517071629E-01
 3 2 1    0.4510695022E-02
 3 2 2    0.3241154960E-02
 3 2 3   -0.1517071629E-01
 3 3 1    0.1309095991E-01
 3 3 2   -0.1309095991E-01
 3 3 3   -0.1741621768E-01
 
    9
  0.000  0.000  0.000
  3.782  0.000  3.782
 1 1 1
 1 1 1    0.1676175042E-01
 1 1 2    0.8279254511E-02
 1 1 3   -0.7356041459E-02
 1 2 1   -0.5334462149E-01
 1 2 2    0.4382416981E-01
 1 2 3   -0.2085713489E-01
 1 3 1   -0.5023246416E-01
 1 3 2    0.4806483338E-01
 1 3 3   -0.5023246416E-01
 2 1 1   -0.5334462149E-01
 2 1 2    0.4382416981E-01
 2 1 3   -0.2085713489E-01
 2 2 1    0.2651152975E-01
 2 2 2    0.1110349675E-01
 2 2 3    0.2651152975E-01
 2 3 1   -0.2085713489E-01
 2 3 2    0.4382416981E-01
 2 3 3   -0.5334462149E-01
 3 1 1   -0.5023246416E-01
 3 1 2    0.4806483338E-01
 3 1 3   -0.5023246416E-01
 3 2 1   -0.2085713489E-01
 3 2 2    0.4382416981E-01
 3 2 3   -0.5334462149E-01
 3 3 1   -0.7356041459E-02
 3 3 2    0.8279254511E-02
 3 3 3    0.1676175042E-01
 
   10
  0.000  0.000  0.000
  3.782  0.000  3.782
 1 1 3
 1 1 1    0.1741621768E-01
 1 1 2    0.1309095991E-01
 1 1 3    0.1309095991E-01
 1 2 1    0.1517071629E-01
 1 2 2   -0.3241154960E-02
 1 2 3    0.4510695022E-02
 1 3 1    0.1517071629E-01
 1 3 2    0.4510695022E-02
 1 3 3   -0.3241154960E-02
 2 1 1    0.1517071629E-01
 2 1 2   -0.3241154960E-02
 2 1 3    0.4510695022E-02
 2 2 1    0.2546992421E-02
 2 2 2   -0.2444191179E-02
 2 2 3    0.3711421599E-02
 2 3 1    0.1853497688E-01
 2 3 2    0.3949665735E-02
 2 3 3    0.3949665735E-02
 3 1 1    0.1517071629E-01
 3 1 2    0.4510695022E-02
 3 1 3   -0.3241154960E-02
 3 2 1    0.1853497688E-01
 3 2 2    0.3949665735E-02
 3 2 3    0.3949665735E-02
 3 3 1    0.2546992421E-02
 3 3 2    0.3711421599E-02
 3 3 3   -0.2444191179E-02
 
   11
  0.000  0.000  0.000
  3.782 -3.782  0.000
 1 1 1
 1 1 1    0.1676175042E-01
 1 1 2    0.7356041459E-02
 1 1 3   -0.8279254511E-02
 1 2 1    0.5023246416E-01
 1 2 2   -0.5023246416E-01
 1 2 3    0.4806483338E-01
 1 3 1    0.5334462149E-01
 1 3 2   -0.2085713489E-01
 1 3 3    0.4382416981E-01
 2 1 1    0.5023246416E-01
 2 1 2   -0.5023246416E-01
 2 1 3    0.4806483338E-01
 2 2 1   -0.7356041459E-02
 2 2 2   -0.1676175042E-01
 2 2 3   -0.8279254511E-02
 2 3 1   -0.2085713489E-01
 2 3 2    0.5334462149E-01
 2 3 3   -0.4382416981E-01
 3 1 1    0.5334462149E-01
 3 1 2   -0.2085713489E-01
 3 1 3    0.4382416981E-01
 3 2 1   -0.2085713489E-01
 3 2 2    0.5334462149E-01
 3 2 3   -0.4382416981E-01
 3 3 1    0.2651152975E-01
 3 3 2   -0.2651152975E-01
 3 3 3   -0.1110349675E-01
 
   12
  0.000  0.000  0.000
  3.782 -3.782  0.000
 1 1 2
 1 1 1    0.1668939425E-01
 1 1 2   -0.1506764066E-01
 1 1 3    0.1506764066E-01
 1 2 1   -0.7491659805E-02
 1 2 2   -0.3148574594E-01
 1 2 3   -0.2802481302E-01
 1 3 1    0.7491659805E-02
 1 3 2   -0.2802481302E-01
 1 3 3   -0.3148574594E-01
 2 1 1   -0.7491659805E-02
 2 1 2   -0.3148574594E-01
 2 1 3   -0.2802481302E-01
 2 2 1   -0.1496200752E-02
 2 2 2    0.7859038661E-02
 2 2 3    0.6945070029E-02
 2 3 1    0.1407424516E-01
 2 3 2   -0.3932318901E-02
 2 3 3    0.3932318901E-02
 3 1 1    0.7491659805E-02
 3 1 2   -0.2802481302E-01
 3 1 3   -0.3148574594E-01
 3 2 1    0.1407424516E-01
 3 2 2   -0.3932318901E-02
 3 2 3    0.3932318901E-02
 3 3 1   -0.1496200752E-02
 3 3 2   -0.6945070029E-02
 3 3 3   -0.7859038661E-02
 
   13
  0.000  0.000  0.000
  3.782 -3.782  0.000
 1 1 3
 1 1 1    0.1741621768E-01
 1 1 2   -0.1309095991E-01
 1 1 3   -0.1309095991E-01
 1 2 1   -0.1517071629E-01
 1 2 2   -0.3241154960E-02
 1 2 3    0.4510695022E-02
 1 3 1   -0.1517071629E-01
 1 3 2    0.4510695022E-02
 1 3 3   -0.3241154960E-02
 2 1 1   -0.1517071629E-01
 2 1 2   -0.3241154960E-02
 2 1 3    0.4510695022E-02
 2 2 1    0.2546992421E-02
 2 2 2    0.2444191179E-02
 2 2 3   -0.3711421599E-02
 2 3 1    0.1853497688E-01
 2 3 2   -0.3949665735E-02
 2 3 3   -0.3949665735E-02
 3 1 1   -0.1517071629E-01
 3 1 2    0.4510695022E-02
 3 1 3   -0.3241154960E-02
 3 2 1    0.1853497688E-01
 3 2 2   -0.3949665735E-02
 3 2 3   -0.3949665735E-02
 3 3 1    0.2546992421E-02
 3 3 2   -0.3711421599E-02
 3 3 3    0.2444191179E-02
 
   14
  0.000  0.000  0.000
 -3.782  0.000 -3.782
 1 1 1
 1 1 1   -0.1676175042E-01
 1 1 2    0.8279254511E-02
 1 1 3    0.7356041459E-02
 1 2 1   -0.5334462149E-01
 1 2 2   -0.4382416981E-01
 1 2 3   -0.2085713489E-01
 1 3 1    0.5023246416E-01
 1 3 2    0.4806483338E-01
 1 3 3    0.5023246416E-01
 2 1 1   -0.5334462149E-01
 2 1 2   -0.4382416981E-01
 2 1 3   -0.2085713489E-01
 2 2 1   -0.2651152975E-01
 2 2 2    0.1110349675E-01
 2 2 3   -0.2651152975E-01
 2 3 1   -0.2085713489E-01
 2 3 2   -0.4382416981E-01
 2 3 3   -0.5334462149E-01
 3 1 1    0.5023246416E-01
 3 1 2    0.4806483338E-01
 3 1 3    0.5023246416E-01
 3 2 1   -0.2085713489E-01
 3 2 2   -0.4382416981E-01
 3 2 3   -0.5334462149E-01
 3 3 1    0.7356041459E-02
 3 3 2    0.8279254511E-02
 3 3 3   -0.1676175042E-01
 
   15
  0.000  0.000  0.000
 -3.782  0.000 -3.782
 1 1 2
 1 1 1    0.5210217671E+00
 1 1 2   -0.9528023999E+00
 1 1 3    0.9528023999E+00
 1 2 1   -0.8760049022E+00
 1 2 2    0.8760049022E+00
 1 2 3   -0.1089061956E+01
 1 3 1    0.8760049022E+00
 1 3 2   -0.1089061956E+01
 1 3 3    0.8760049022E+00
 2 1 1   -0.8760049022E+00
 2 1 2    0.8760049022E+00
 2 1 3   -0.1089061956E+01
 2 2 1    0.9528023999E+00
 2 2 2   -0.5210217671E+00
 2 2 3    0.9528023999E+00
 2 3 1   -0.1089061956E+01
 2 3 2    0.8760049022E+00
 2 3 3   -0.8760049022E+00
 3 1 1    0.8760049022E+00
 3 1 2   -0.1089061956E+01
 3 1 3    0.8760049022E+00
 3 2 1   -0.1089061956E+01
 3 2 2    0.8760049022E+00
 3 2 3   -0.8760049022E+00
 3 3 1    0.9528023999E+00
 3 3 2   -0.9528023999E+00
 3 3 3    0.5210217671E+00
 
   16
  0.000  0.000  0.000
 -3.782  0.000 -3.782
 1 1 3
 1 1 1    0.2444191179E-02
 1 1 2    0.3711421599E-02
 1 1 3   -0.2546992421E-02
 1 2 1    0.3949665735E-02
 1 2 2   -0.3949665735E-02
 1 2 3    0.1853497688E-01
 1 3 1    0.3241154960E-02
 1 3 2    0.4510695022E-02
 1 3 3   -0.1517071629E-01
 2 1 1    0.3949665735E-02
 2 1 2   -0.3949665735E-02
 2 1 3    0.1853497688E-01
 2 2 1   -0.3711421599E-02
 2 2 2   -0.2444191179E-02
 2 2 3   -0.2546992421E-02
 2 3 1    0.4510695022E-02
 2 3 2    0.3241154960E-02
 2 3 3    0.1517071629E-01
 3 1 1    0.3241154960E-02
 3 1 2    0.4510695022E-02
 3 1 3   -0.1517071629E-01
 3 2 1    0.4510695022E-02
 3 2 2    0.3241154960E-02
 3 2 3    0.1517071629E-01
 3 3 1   -0.1309095991E-01
 3 3 2    0.1309095991E-01
 3 3 3   -0.1741621768E-01
 
   17
  0.000  0.000  0.000
 -3.782  3.782  0.000
 1 1 1
 1 1 1   -0.1676175042E-01
 1 1 2   -0.7356041459E-02
 1 1 3   -0.8279254511E-02
 1 2 1   -0.5023246416E-01
 1 2 2    0.5023246416E-01
 1 2 3    0.4806483338E-01
 1 3 1    0.5334462149E-01
 1 3 2   -0.2085713489E-01
 1 3 3   -0.4382416981E-01
 2 1 1   -0.5023246416E-01
 2 1 2    0.5023246416E-01
 2 1 3    0.4806483338E-01
 2 2 1    0.7356041459E-02
 2 2 2    0.1676175042E-01
 2 2 3   -0.8279254511E-02
 2 3 1   -0.2085713489E-01
 2 3 2    0.5334462149E-01
 2 3 3    0.4382416981E-01
 3 1 1    0.5334462149E-01
 3 1 2   -0.2085713489E-01
 3 1 3   -0.4382416981E-01
 3 2 1   -0.2085713489E-01
 3 2 2    0.5334462149E-01
 3 2 3    0.4382416981E-01
 3 3 1   -0.2651152975E-01
 3 3 2    0.2651152975E-01
 3 3 3   -0.1110349675E-01
 
   18
  0.000  0.000  0.000
 -3.782  3.782  0.000
 1 1 2
 1 1 1    0.7859038661E-02
 1 1 2   -0.1496200752E-02
 1 1 3    0.6945070029E-02
 1 2 1   -0.3148574594E-01
 1 2 2   -0.7491659805E-02
 1 2 3   -0.2802481302E-01
 1 3 1   -0.3932318901E-02
 1 3 2    0.1407424516E-01
 1 3 3    0.3932318901E-02
 2 1 1   -0.3148574594E-01
 2 1 2   -0.7491659805E-02
 2 1 3   -0.2802481302E-01
 2 2 1   -0.1506764066E-01
 2 2 2    0.1668939425E-01
 2 2 3    0.1506764066E-01
 2 3 1   -0.2802481302E-01
 2 3 2    0.7491659805E-02
 2 3 3   -0.3148574594E-01
 3 1 1   -0.3932318901E-02
 3 1 2    0.1407424516E-01
 3 1 3    0.3932318901E-02
 3 2 1   -0.2802481302E-01
 3 2 2    0.7491659805E-02
 3 2 3   -0.3148574594E-01
 3 3 1   -0.6945070029E-02
 3 3 2   -0.1496200752E-02
 3 3 3   -0.7859038661E-02
 
   19
  0.000  0.000  0.000
 -3.782  3.782  0.000
 1 1 3
 1 1 1    0.2444191179E-02
 1 1 2    0.2546992421E-02
 1 1 3   -0.3711421599E-02
 1 2 1   -0.3241154960E-02
 1 2 2   -0.1517071629E-01
 1 2 3    0.4510695022E-02
 1 3 1   -0.3949665735E-02
 1 3 2    0.1853497688E-01
 1 3 3   -0.3949665735E-02
 2 1 1   -0.3241154960E-02
 2 1 2   -0.1517071629E-01
 2 1 3    0.4510695022E-02
 2 2 1   -0.1309095991E-01
 2 2 2    0.1741621768E-01
 2 2 3   -0.1309095991E-01
 2 3 1    0.4510695022E-02
 2 3 2   -0.1517071629E-01
 2 3 3   -0.3241154960E-02
 3 1 1   -0.3949665735E-02
 3 1 2    0.1853497688E-01
 3 1 3   -0.3949665735E-02
 3 2 1    0.4510695022E-02
 3 2 2   -0.1517071629E-01
 3 2 3   -0.3241154960E-02
 3 3 1   -0.3711421599E-02
 3 3 2    0.2546992421E-02
 3 3 3    0.2444191179E-02
 
   20
  0.000  0.000  0.000
 -3.782 -3.782 -7.563
 1 1 2
 1 1 1    0.7859038661E-02
 1 1 2   -0.6945070029E-02
 1 1 3    0.1496200752E-02
 1 2 1    0.3932318901E-02
 1 2 2    0.3932318901E-02
 1 2 3    0.1407424516E-01
 1 3 1    0.3148574594E-01
 1 3 2   -0.2802481302E-01
 1 3 3   -0.7491659805E-02
 2 1 1    0.3932318901E-02
 2 1 2    0.3932318901E-02
 2 1 3    0.1407424516E-01
 2 2 1   -0.6945070029E-02
 2 2 2    0.7859038661E-02
 2 2 3    0.1496200752E-02
 2 3 1   -0.2802481302E-01
 2 3 2    0.3148574594E-01
 2 3 3   -0.7491659805E-02
 3 1 1    0.3148574594E-01
 3 1 2   -0.2802481302E-01
 3 1 3   -0.7491659805E-02
 3 2 1   -0.2802481302E-01
 3 2 2    0.3148574594E-01
 3 2 3   -0.7491659805E-02
 3 3 1   -0.1506764066E-01
 3 3 2   -0.1506764066E-01
 3 3 3   -0.1668939425E-01
 
   21
  0.000  0.000  0.000
  3.782  3.782  0.000
 1 1 1
 1 1 1    0.1676175042E-01
 1 1 2   -0.7356041459E-02
 1 1 3    0.8279254511E-02
 1 2 1   -0.5023246416E-01
 1 2 2   -0.5023246416E-01
 1 2 3    0.4806483338E-01
 1 3 1   -0.5334462149E-01
 1 3 2   -0.2085713489E-01
 1 3 3    0.4382416981E-01
 2 1 1   -0.5023246416E-01
 2 1 2   -0.5023246416E-01
 2 1 3    0.4806483338E-01
 2 2 1   -0.7356041459E-02
 2 2 2    0.1676175042E-01
 2 2 3    0.8279254511E-02
 2 3 1   -0.2085713489E-01
 2 3 2   -0.5334462149E-01
 2 3 3    0.4382416981E-01
 3 1 1   -0.5334462149E-01
 3 1 2   -0.2085713489E-01
 3 1 3    0.4382416981E-01
 3 2 1   -0.2085713489E-01
 3 2 2   -0.5334462149E-01
 3 2 3    0.4382416981E-01
 3 3 1    0.2651152975E-01
 3 3 2    0.2651152975E-01
 3 3 3    0.1110349675E-01
 
   22
  0.000  0.000  0.000
  3.782  0.000 -3.782
 1 1 1
 1 1 1    0.1676175042E-01
 1 1 2   -0.8279254511E-02
 1 1 3    0.7356041459E-02
 1 2 1    0.5334462149E-01
 1 2 2    0.4382416981E-01
 1 2 3   -0.2085713489E-01
 1 3 1    0.5023246416E-01
 1 3 2    0.4806483338E-01
 1 3 3   -0.5023246416E-01
 2 1 1    0.5334462149E-01
 2 1 2    0.4382416981E-01
 2 1 3   -0.2085713489E-01
 2 2 1    0.2651152975E-01
 2 2 2   -0.1110349675E-01
 2 2 3   -0.2651152975E-01
 2 3 1   -0.2085713489E-01
 2 3 2   -0.4382416981E-01
 2 3 3    0.5334462149E-01
 3 1 1    0.5023246416E-01
 3 1 2    0.4806483338E-01
 3 1 3   -0.5023246416E-01
 3 2 1   -0.2085713489E-01
 3 2 2   -0.4382416981E-01
 3 2 3    0.5334462149E-01
 3 3 1   -0.7356041459E-02
 3 3 2   -0.8279254511E-02
 3 3 3   -0.1676175042E-01
 
   23
  0.000  0.000  0.000
  3.782  0.000 -3.782
 1 1 2
 1 1 1    0.1668939425E-01
 1 1 2    0.1506764066E-01
 1 1 3   -0.1506764066E-01
 1 2 1    0.7491659805E-02
 1 2 2   -0.3148574594E-01
 1 2 3   -0.2802481302E-01
 1 3 1   -0.7491659805E-02
 1 3 2   -0.2802481302E-01
 1 3 3   -0.3148574594E-01
 2 1 1    0.7491659805E-02
 2 1 2   -0.3148574594E-01
 2 1 3   -0.2802481302E-01
 2 2 1   -0.1496200752E-02
 2 2 2   -0.7859038661E-02
 2 2 3   -0.6945070029E-02
 2 3 1    0.1407424516E-01
 2 3 2    0.3932318901E-02
 2 3 3   -0.3932318901E-02
 3 1 1   -0.7491659805E-02
 3 1 2   -0.2802481302E-01
 3 1 3   -0.3148574594E-01
 3 2 1    0.1407424516E-01
 3 2 2    0.3932318901E-02
 3 2 3   -0.3932318901E-02
 3 3 1   -0.1496200752E-02
 3 3 2    0.6945070029E-02
 3 3 3    0.7859038661E-02
 
   24
  0.000  0.000  0.000
  0.000  3.782 -3.782
 1 1 1
 1 1 1   -0.1110349675E-01
 1 1 2    0.2651152975E-01
 1 1 3   -0.2651152975E-01
 1 2 1    0.4382416981E-01
 1 2 2    0.5334462149E-01
 1 2 3   -0.2085713489E-01
 1 3 1   -0.4382416981E-01
 1 3 2   -0.2085713489E-01
 1 3 3    0.5334462149E-01
 2 1 1    0.4382416981E-01
 2 1 2    0.5334462149E-01
 2 1 3   -0.2085713489E-01
 2 2 1   -0.8279254511E-02
 2 2 2    0.1676175042E-01
 2 2 3    0.7356041459E-02
 2 3 1    0.4806483338E-01
 2 3 2    0.5023246416E-01
 2 3 3   -0.5023246416E-01
 3 1 1   -0.4382416981E-01
 3 1 2   -0.2085713489E-01
 3 1 3    0.5334462149E-01
 3 2 1    0.4806483338E-01
 3 2 2    0.5023246416E-01
 3 2 3   -0.5023246416E-01
 3 3 1   -0.8279254511E-02
 3 3 2   -0.7356041459E-02
 3 3 3   -0.1676175042E-01
 
   25
  0.000  0.000  0.000
  0.000  3.782 -3.782
 1 1 2
 1 1 1   -0.7859038661E-02
 1 1 2   -0.1496200752E-02
 1 1 3   -0.6945070029E-02
 1 2 1   -0.3148574594E-01
 1 2 2    0.7491659805E-02
 1 2 3   -0.2802481302E-01
 1 3 1    0.3932318901E-02
 1 3 2    0.1407424516E-01
 1 3 3   -0.3932318901E-02
 2 1 1   -0.3148574594E-01
 2 1 2    0.7491659805E-02
 2 1 3   -0.2802481302E-01
 2 2 1    0.1506764066E-01
 2 2 2    0.1668939425E-01
 2 2 3   -0.1506764066E-01
 2 3 1   -0.2802481302E-01
 2 3 2   -0.7491659805E-02
 2 3 3   -0.3148574594E-01
 3 1 1    0.3932318901E-02
 3 1 2    0.1407424516E-01
 3 1 3   -0.3932318901E-02
 3 2 1   -0.2802481302E-01
 3 2 2   -0.7491659805E-02
 3 2 3   -0.3148574594E-01
 3 3 1    0.6945070029E-02
 3 3 2   -0.1496200752E-02
 3 3 3    0.7859038661E-02
 
   26
  0.000  0.000  0.000
  0.000  0.000 -7.563
 1 1 2
 1 1 1   -0.7859038661E-02
 1 1 2    0.6945070029E-02
 1 1 3    0.1496200752E-02
 1 2 1   -0.3932318901E-02
 1 2 2   -0.3932318901E-02
 1 2 3    0.1407424516E-01
 1 3 1    0.3148574594E-01
 1 3 2   -0.2802481302E-01
 1 3 3    0.7491659805E-02
 2 1 1   -0.3932318901E-02
 2 1 2   -0.3932318901E-02
 2 1 3    0.1407424516E-01
 2 2 1    0.6945070029E-02
 2 2 2   -0.7859038661E-02
 2 2 3    0.1496200752E-02
 2 3 1   -0.2802481302E-01
 2 3 2    0.3148574594E-01
 2 3 3    0.7491659805E-02
 3 1 1    0.3148574594E-01
 3 1 2   -0.2802481302E-01
 3 1 3    0.7491659805E-02
 3 2 1   -0.2802481302E-01
 3 2 2    0.3148574594E-01
 3 2 3    0.7491659805E-02
 3 3 1    0.1506764066E-01
 3 3 2    0.1506764066E-01
 3 3 3   -0.1668939425E-01
 
   27
  0.000  0.000  0.000
 -7.563 -3.782  3.782
 1 1 3
 1 1 1   -0.1741621768E-01
 1 1 2   -0.1309095991E-01
 1 1 3    0.1309095991E-01
 1 2 1   -0.1517071629E-01
 1 2 2    0.3241154960E-02
 1 2 3    0.4510695022E-02
 1 3 1    0.1517071629E-01
 1 3 2    0.4510695022E-02
 1 3 3    0.3241154960E-02
 2 1 1   -0.1517071629E-01
 2 1 2    0.3241154960E-02
 2 1 3    0.4510695022E-02
 2 2 1   -0.2546992421E-02
 2 2 2    0.2444191179E-02
 2 2 3    0.3711421599E-02
 2 3 1    0.1853497688E-01
 2 3 2    0.3949665735E-02
 2 3 3   -0.3949665735E-02
 3 1 1    0.1517071629E-01
 3 1 2    0.4510695022E-02
 3 1 3    0.3241154960E-02
 3 2 1    0.1853497688E-01
 3 2 2    0.3949665735E-02
 3 2 3   -0.3949665735E-02
 3 3 1   -0.2546992421E-02
 3 3 2   -0.3711421599E-02
 3 3 3   -0.2444191179E-02
 
   28
  0.000  0.000  0.000
 -3.782 -7.563  3.782
 1 1 3
 1 1 1    0.2444191179E-02
 1 1 2   -0.2546992421E-02
 1 1 3    0.3711421599E-02
 1 2 1    0.3241154960E-02
 1 2 2   -0.1517071629E-01
 1 2 3    0.4510695022E-02
 1 3 1    0.3949665735E-02
 1 3 2    0.1853497688E-01
 1 3 3   -0.3949665735E-02
 2 1 1    0.3241154960E-02
 2 1 2   -0.1517071629E-01
 2 1 3    0.4510695022E-02
 2 2 1   -0.1309095991E-01
 2 2 2   -0.1741621768E-01
 2 2 3    0.1309095991E-01
 2 3 1    0.4510695022E-02
 2 3 2    0.1517071629E-01
 2 3 3    0.3241154960E-02
 3 1 1    0.3949665735E-02
 3 1 2    0.1853497688E-01
 3 1 3   -0.3949665735E-02
 3 2 1    0.4510695022E-02
 3 2 2    0.1517071629E-01
 3 2 3    0.3241154960E-02
 3 3 1   -0.3711421599E-02
 3 3 2   -0.2546992421E-02
 3 3 3   -0.2444191179E-02
 
   29
  0.000  0.000  0.000
 -3.782 -3.782  7.563
 1 1 3
 1 1 1    0.2444191179E-02
 1 1 2   -0.3711421599E-02
 1 1 3    0.2546992421E-02
 1 2 1   -0.3949665735E-02
 1 2 2   -0.3949665735E-02
 1 2 3    0.1853497688E-01
 1 3 1   -0.3241154960E-02
 1 3 2    0.4510695022E-02
 1 3 3   -0.1517071629E-01
 2 1 1   -0.3949665735E-02
 2 1 2   -0.3949665735E-02
 2 1 3    0.1853497688E-01
 2 2 1   -0.3711421599E-02
 2 2 2    0.2444191179E-02
 2 2 3    0.2546992421E-02
 2 3 1    0.4510695022E-02
 2 3 2   -0.3241154960E-02
 2 3 3   -0.1517071629E-01
 3 1 1   -0.3241154960E-02
 3 1 2    0.4510695022E-02
 3 1 3   -0.1517071629E-01
 3 2 1    0.4510695022E-02
 3 2 2   -0.3241154960E-02
 3 2 3   -0.1517071629E-01
 3 3 1   -0.1309095991E-01
 3 3 2   -0.1309095991E-01
 3 3 3    0.1741621768E-01
 
   30
  0.000  0.000  0.000
 -3.782 -3.782  0.000
 1 1 1
 1 1 1   -0.1676175042E-01
 1 1 2    0.7356041459E-02
 1 1 3    0.8279254511E-02
 1 2 1    0.5023246416E-01
 1 2 2    0.5023246416E-01
 1 2 3    0.4806483338E-01
 1 3 1   -0.5334462149E-01
 1 3 2   -0.2085713489E-01
 1 3 3   -0.4382416981E-01
 2 1 1    0.5023246416E-01
 2 1 2    0.5023246416E-01
 2 1 3    0.4806483338E-01
 2 2 1    0.7356041459E-02
 2 2 2   -0.1676175042E-01
 2 2 3    0.8279254511E-02
 2 3 1   -0.2085713489E-01
 2 3 2   -0.5334462149E-01
 2 3 3   -0.4382416981E-01
 3 1 1   -0.5334462149E-01
 3 1 2   -0.2085713489E-01
 3 1 3   -0.4382416981E-01
 3 2 1   -0.2085713489E-01
 3 2 2   -0.5334462149E-01
 3 2 3   -0.4382416981E-01
 3 3 1   -0.2651152975E-01
 3 3 2   -0.2651152975E-01
 3 3 3    0.1110349675E-01
 
   31
  0.000  0.000  0.000
 -3.782 -3.782  0.000
 1 1 2
 1 1 1    0.5210217671E+00
 1 1 2    0.9528023999E+00
 1 1 3   -0.9528023999E+00
 1 2 1    0.8760049022E+00
 1 2 2    0.8760049022E+00
 1 2 3   -0.1089061956E+01
 1 3 1   -0.8760049022E+00
 1 3 2   -0.1089061956E+01
 1 3 3    0.8760049022E+00
 2 1 1    0.8760049022E+00
 2 1 2    0.8760049022E+00
 2 1 3   -0.1089061956E+01
 2 2 1    0.9528023999E+00
 2 2 2    0.5210217671E+00
 2 2 3   -0.9528023999E+00
 2 3 1   -0.1089061956E+01
 2 3 2   -0.8760049022E+00
 2 3 3    0.8760049022E+00
 3 1 1   -0.8760049022E+00
 3 1 2   -0.1089061956E+01
 3 1 3    0.8760049022E+00
 3 2 1   -0.1089061956E+01
 3 2 2   -0.8760049022E+00
 3 2 3    0.8760049022E+00
 3 3 1    0.9528023999E+00
 3 3 2    0.9528023999E+00
 3 3 3   -0.5210217671E+00
 
   32
  0.000  0.000  0.000
 -3.782 -3.782  0.000
 1 1 3
 1 1 1    0.4496100581E+00
 1 1 2    0.1007065307E+01
 1 1 3    0.1007065307E+01
 1 2 1    0.9822004005E+00
 1 2 2    0.9822004005E+00
 1 2 3    0.1190282540E+01
 1 3 1    0.9822004005E+00
 1 3 2    0.1190282540E+01
 1 3 3    0.9822004005E+00
 2 1 1    0.9822004005E+00
 2 1 2    0.9822004005E+00
 2 1 3    0.1190282540E+01
 2 2 1    0.1007065307E+01
 2 2 2    0.4496100581E+00
 2 2 3    0.1007065307E+01
 2 3 1    0.1190282540E+01
 2 3 2    0.9822004005E+00
 2 3 3    0.9822004005E+00
 3 1 1    0.9822004005E+00
 3 1 2    0.1190282540E+01
 3 1 3    0.9822004005E+00
 3 2 1    0.1190282540E+01
 3 2 2    0.9822004005E+00
 3 2 3    0.9822004005E+00
 3 3 1    0.1007065307E+01
 3 3 2    0.1007065307E+01
 3 3 3    0.4496100581E+00
 
   33
  0.000  0.000  0.000
 -3.782  0.000  3.782
 1 1 1
 1 1 1   -0.1676175042E-01
 1 1 2   -0.8279254511E-02
 1 1 3   -0.7356041459E-02
 1 2 1    0.5334462149E-01
 1 2 2   -0.4382416981E-01
 1 2 3   -0.2085713489E-01
 1 3 1   -0.5023246416E-01
 1 3 2    0.4806483338E-01
 1 3 3    0.5023246416E-01
 2 1 1    0.5334462149E-01
 2 1 2   -0.4382416981E-01
 2 1 3   -0.2085713489E-01
 2 2 1   -0.2651152975E-01
 2 2 2   -0.1110349675E-01
 2 2 3    0.2651152975E-01
 2 3 1   -0.2085713489E-01
 2 3 2    0.4382416981E-01
 2 3 3    0.5334462149E-01
 3 1 1   -0.5023246416E-01
 3 1 2    0.4806483338E-01
 3 1 3    0.5023246416E-01
 3 2 1   -0.2085713489E-01
 3 2 2    0.4382416981E-01
 3 2 3    0.5334462149E-01
 3 3 1    0.7356041459E-02
 3 3 2   -0.8279254511E-02
 3 3 3    0.1676175042E-01
 
   34
  0.000  0.000  0.000
 -3.782  0.000  3.782
 1 1 2
 1 1 1    0.7859038661E-02
 1 1 2    0.6945070029E-02
 1 1 3   -0.1496200752E-02
 1 2 1   -0.3932318901E-02
 1 2 2    0.3932318901E-02
 1 2 3    0.1407424516E-01
 1 3 1   -0.3148574594E-01
 1 3 2   -0.2802481302E-01
 1 3 3   -0.7491659805E-02
 2 1 1   -0.3932318901E-02
 2 1 2    0.3932318901E-02
 2 1 3    0.1407424516E-01
 2 2 1   -0.6945070029E-02
 2 2 2   -0.7859038661E-02
 2 2 3   -0.1496200752E-02
 2 3 1   -0.2802481302E-01
 2 3 2   -0.3148574594E-01
 2 3 3    0.7491659805E-02
 3 1 1   -0.3148574594E-01
 3 1 2   -0.2802481302E-01
 3 1 3   -0.7491659805E-02
 3 2 1   -0.2802481302E-01
 3 2 2   -0.3148574594E-01
 3 2 3    0.7491659805E-02
 3 3 1   -0.1506764066E-01
 3 3 2    0.1506764066E-01
 3 3 3    0.1668939425E-01
 
   35
  0.000  0.000  0.000
 -3.782  0.000  3.782
 1 1 3
 1 1 1    0.4496100581E+00
 1 1 2   -0.1007065307E+01
 1 1 3   -0.1007065307E+01
 1 2 1   -0.9822004005E+00
 1 2 2    0.9822004005E+00
 1 2 3    0.1190282540E+01
 1 3 1   -0.9822004005E+00
 1 3 2    0.1190282540E+01
 1 3 3    0.9822004005E+00
 2 1 1   -0.9822004005E+00
 2 1 2    0.9822004005E+00
 2 1 3    0.1190282540E+01
 2 2 1    0.1007065307E+01
 2 2 2   -0.4496100581E+00
 2 2 3   -0.1007065307E+01
 2 3 1    0.1190282540E+01
 2 3 2   -0.9822004005E+00
 2 3 3   -0.9822004005E+00
 3 1 1   -0.9822004005E+00
 3 1 2    0.1190282540E+01
 3 1 3    0.9822004005E+00
 3 2 1    0.1190282540E+01
 3 2 2   -0.9822004005E+00
 3 2 3   -0.9822004005E+00
 3 3 1    0.1007065307E+01
 3 3 2   -0.1007065307E+01
 3 3 3   -0.4496100581E+00
 
   36
  0.000  0.000  0.000
 -3.782 -7.563 -3.782
 1 1 2
 1 1 1    0.7859038661E-02
 1 1 2    0.1496200752E-02
 1 1 3   -0.6945070029E-02
 1 2 1    0.3148574594E-01
 1 2 2   -0.7491659805E-02
 1 2 3   -0.2802481302E-01
 1 3 1    0.3932318901E-02
 1 3 2    0.1407424516E-01
 1 3 3    0.3932318901E-02
 2 1 1    0.3148574594E-01
 2 1 2   -0.7491659805E-02
 2 1 3   -0.2802481302E-01
 2 2 1   -0.1506764066E-01
 2 2 2   -0.1668939425E-01
 2 2 3   -0.1506764066E-01
 2 3 1   -0.2802481302E-01
 2 3 2   -0.7491659805E-02
 2 3 3    0.3148574594E-01
 3 1 1    0.3932318901E-02
 3 1 2    0.1407424516E-01
 3 1 3    0.3932318901E-02
 3 2 1   -0.2802481302E-01
 3 2 2   -0.7491659805E-02
 3 2 3    0.3148574594E-01
 3 3 1   -0.6945070029E-02
 3 3 2    0.1496200752E-02
 3 3 3    0.7859038661E-02
 
   37
  0.000  0.000  0.000
  0.000 -3.782  3.782
 1 1 1
 1 1 1   -0.1110349675E-01
 1 1 2   -0.2651152975E-01
 1 1 3    0.2651152975E-01
 1 2 1   -0.4382416981E-01
 1 2 2    0.5334462149E-01
 1 2 3   -0.2085713489E-01
 1 3 1    0.4382416981E-01
 1 3 2   -0.2085713489E-01
 1 3 3    0.5334462149E-01
 2 1 1   -0.4382416981E-01
 2 1 2    0.5334462149E-01
 2 1 3   -0.2085713489E-01
 2 2 1   -0.8279254511E-02
 2 2 2   -0.1676175042E-01
 2 2 3   -0.7356041459E-02
 2 3 1    0.4806483338E-01
 2 3 2   -0.5023246416E-01
 2 3 3    0.5023246416E-01
 3 1 1    0.4382416981E-01
 3 1 2   -0.2085713489E-01
 3 1 3    0.5334462149E-01
 3 2 1    0.4806483338E-01
 3 2 2   -0.5023246416E-01
 3 2 3    0.5023246416E-01
 3 3 1   -0.8279254511E-02
 3 3 2    0.7356041459E-02
 3 3 3    0.1676175042E-01
 
   38
  0.000  0.000  0.000
  0.000 -3.782  3.782
 1 1 2
 1 1 1   -0.7859038661E-02
 1 1 2   -0.6945070029E-02
 1 1 3   -0.1496200752E-02
 1 2 1    0.3932318901E-02
 1 2 2   -0.3932318901E-02
 1 2 3    0.1407424516E-01
 1 3 1   -0.3148574594E-01
 1 3 2   -0.2802481302E-01
 1 3 3    0.7491659805E-02
 2 1 1    0.3932318901E-02
 2 1 2   -0.3932318901E-02
 2 1 3    0.1407424516E-01
 2 2 1    0.6945070029E-02
 2 2 2    0.7859038661E-02
 2 2 3   -0.1496200752E-02
 2 3 1   -0.2802481302E-01
 2 3 2   -0.3148574594E-01
 2 3 3   -0.7491659805E-02
 3 1 1   -0.3148574594E-01
 3 1 2   -0.2802481302E-01
 3 1 3    0.7491659805E-02
 3 2 1   -0.2802481302E-01
 3 2 2   -0.3148574594E-01
 3 2 3   -0.7491659805E-02
 3 3 1    0.1506764066E-01
 3 3 2   -0.1506764066E-01
 3 3 3    0.1668939425E-01
 
   39
  0.000  0.000  0.000