  81
   1   1
    17.540781484423412    -0.000000000000000     0.000000000000001
    -0.000000000000000    17.540781484423416     0.000000000000001
     0.000000000000001     0.000000000000001    17.540781484423409
   1   2
     0.846242110623187     0.190985652511189     0.190985652511189
    -0.190985652511189    -0.490242738827973    -0.700764386912692
    -0.190985652511189    -0.700764386912692    -0.490242738827973
   1   3
     0.846242110623186    -0.190985652511189    -0.190985652511189
     0.190985652511189    -0.490242738827973    -0.700764386912692
     0.190985652511189    -0.700764386912692    -0.490242738827973
   1   4
    -0.490242738827973    -0.190985652511189    -0.700764386912692
     0.190985652511189     0.846242110623187     0.190985652511189
    -0.700764386912692    -0.190985652511189    -0.490242738827973
   1   5
    -0.128867156244519     0.055952829265205    -0.055952829265205
     0.055952829265205    -0.128867156244519    -0.055952829265205
    -0.055952829265205    -0.055952829265205    -0.128867156244519
   1   6
    -0.490242738827973     0.700764386912692     0.190985652511189
     0.700764386912692    -0.490242738827973    -0.190985652511189
    -0.190985652511189     0.190985652511189     0.846242110623186
   1   7
    -0.490242738827973     0.190985652511189    -0.700764386912692
    -0.190985652511189     0.846242110623186    -0.190985652511189
    -0.700764386912692     0.190985652511189    -0.490242738827972
   1   8
    -0.490242738827973     0.700764386912692    -0.190985652511189
     0.700764386912692    -0.490242738827973     0.190985652511189
     0.190985652511189    -0.190985652511189     0.846242110623186
   1   9
    -0.128867156244519     0.055952829265205    -0.055952829265205
     0.055952829265205    -0.128867156244519    -0.055952829265205
    -0.055952829265205    -0.055952829265205    -0.128867156244519
   1  10
    -0.490242738827973    -0.700764386912692    -0.190985652511189
    -0.700764386912692    -0.490242738827973    -0.190985652511189
     0.190985652511189     0.190985652511189     0.846242110623186
   1  11
    -0.128867156244519    -0.055952829265205     0.055952829265205
    -0.055952829265205    -0.128867156244519    -0.055952829265205
     0.055952829265205    -0.055952829265205    -0.128867156244519
   1  12
    -0.490242738827973     0.190985652511189     0.700764386912692
    -0.190985652511189     0.846242110623186     0.190985652511189
     0.700764386912692    -0.190985652511189    -0.490242738827973
   1  13
    -0.128867156244519    -0.055952829265205    -0.055952829265205
    -0.055952829265205    -0.128867156244519     0.055952829265205
    -0.055952829265205     0.055952829265205    -0.128867156244519
   1  14
    -0.128867156244519     0.055952829265205     0.055952829265205
     0.055952829265205    -0.128867156244519     0.055952829265205
     0.055952829265205     0.055952829265205    -0.128867156244519
   1  15
    -0.251995129722447    -0.000000000000000    -0.000000000000000
    -0.000000000000000     0.067387325669986    -0.000000000000000
    -0.000000000000000    -0.000000000000000     0.067387325669986
   1  16
     0.846242110623186    -0.190985652511189     0.190985652511189
     0.190985652511189    -0.490242738827973     0.700764386912692
    -0.190985652511189     0.700764386912692    -0.490242738827973
   1  17
     0.067387325669986     0.000000000000000     0.000000000000000
     0.000000000000000    -0.251995129722447     0.000000000000000
    -0.000000000000000    -0.000000000000000     0.067387325669986
   1  18
     0.067387325669986     0.000000000000000    -0.000000000000000
    -0.000000000000000     0.067387325669986    -0.000000000000000
     0.000000000000000    -0.000000000000000    -0.251995129722447
   1  19
    -0.490242738827973    -0.700764386912692     0.190985652511189
    -0.700764386912692    -0.490242738827972     0.190985652511189
    -0.190985652511189    -0.190985652511189     0.846242110623186
   1  20
    -0.490242738827973    -0.190985652511189     0.700764386912692
     0.190985652511189     0.846242110623187    -0.190985652511189
     0.700764386912692     0.190985652511189    -0.490242738827973
   1  21
    -0.128867156244519    -0.055952829265205     0.055952829265205
    -0.055952829265205    -0.128867156244519    -0.055952829265205
     0.055952829265205    -0.055952829265205    -0.128867156244519
   1  22
     0.846242110623186     0.190985652511189    -0.190985652511189
    -0.190985652511189    -0.490242738827973     0.700764386912692
     0.190985652511189     0.700764386912692    -0.490242738827973
   1  23
     0.067387325669986    -0.000000000000000    -0.000000000000000
     0.000000000000000     0.067387325669986    -0.000000000000000
     0.000000000000000    -0.000000000000000    -0.251995129722447
   1  24
     0.067387325669986     0.000000000000000    -0.000000000000000
     0.000000000000000    -0.251995129722447    -0.000000000000000
    -0.000000000000000    -0.000000000000000     0.067387325669986
   1  25
    -0.128867156244519    -0.055952829265205    -0.055952829265205
    -0.055952829265205    -0.128867156244519     0.055952829265205
    -0.055952829265205     0.055952829265205    -0.128867156244519
   1  26
    -0.251995129722446     0.000000000000000    -0.000000000000000
     0.000000000000000     0.067387325669986    -0.000000000000000
    -0.000000000000000    -0.000000000000000     0.067387325669986
   1  27
    -0.128867156244519     0.055952829265205     0.055952829265205
     0.055952829265205    -0.128867156244519     0.055952829265205
     0.055952829265205     0.055952829265205    -0.128867156244519
   1  28
    -1.256350767363267    -0.476075373559723    -0.476075373559723
    -0.476075373559723    -1.256350767363267    -0.476075373559723
    -0.476075373559723    -0.476075373559723    -1.256350767363267
   1  29
    -0.014034509943235     0.000000000000000    -0.000000000000000
     0.000000000000000     0.100700813148789     0.097181043695678
     0.000000000000000     0.097181043695678     0.100700813148789
   1  30
    -1.256350767363267     0.476075373559723     0.476075373559723
     0.476075373559723    -1.256350767363267    -0.476075373559723
     0.476075373559723    -0.476075373559723    -1.256350767363267
   1  31
     0.100700813148789     0.000000000000000     0.097181043695678
    -0.000000000000000    -0.014034509943235    -0.000000000000000
     0.097181043695678    -0.000000000000000     0.100700813148789
   1  32
     0.100700813148789    -0.097181043695678    -0.000000000000000
    -0.097181043695678     0.100700813148789    -0.000000000000000
     0.000000000000000    -0.000000000000000    -0.014034509943235
   1  33
     0.111179251762497     0.014306891503747    -0.014306891503747
     0.006451907436589    -0.076989906050879    -0.018575253200032
    -0.006451907436589    -0.018575253200032    -0.076989906050879
   1  34
    -1.256350767363267     0.476075373559723    -0.476075373559723
     0.476075373559723    -1.256350767363267     0.476075373559723
    -0.476075373559723     0.476075373559723    -1.256350767363267
   1  35
    -0.076989906050879     0.006451907436589    -0.018575253200032
     0.014306891503747     0.111179251762497    -0.014306891503747
    -0.018575253200032    -0.006451907436589    -0.076989906050879
   1  36
    -0.076989906050879     0.018575253200032    -0.006451907436589
     0.018575253200032    -0.076989906050879    -0.006451907436589
    -0.014306891503747    -0.014306891503747     0.111179251762497
   1  37
     0.100700813148789     0.097181043695678    -0.000000000000000
     0.097181043695678     0.100700813148789    -0.000000000000000
    -0.000000000000000    -0.000000000000000    -0.014034509943235
   1  38
     0.100700813148789     0.000000000000000    -0.097181043695678
    -0.000000000000000    -0.014034509943235    -0.000000000000000
    -0.097181043695678    -0.000000000000000     0.100700813148789
   1  39
     0.111179251762497    -0.014306891503747     0.014306891503747
    -0.006451907436589    -0.076989906050879    -0.018575253200032
     0.006451907436589    -0.018575253200032    -0.076989906050879
   1  40
    -0.014034509943235     0.000000000000000    -0.000000000000000
    -0.000000000000000     0.100700813148789    -0.097181043695678
     0.000000000000000    -0.097181043695678     0.100700813148789
   1  41
     0.020453209095576    -0.021229820444954    -0.021229820444954
    -0.021229820444954     0.020453209095576    -0.021229820444954
    -0.021229820444954    -0.021229820444954     0.020453209095576
   1  42
     0.020453209095576     0.021229820444954     0.021229820444954
     0.021229820444954     0.020453209095576    -0.021229820444954
     0.021229820444954    -0.021229820444954     0.020453209095576
   1  43
    -0.076989906050879    -0.006451907436589    -0.018575253200032
    -0.014306891503747     0.111179251762497     0.014306891503747
    -0.018575253200032     0.006451907436589    -0.076989906050879
   1  44
     0.020453209095576     0.021229820444954    -0.021229820444954
     0.021229820444954     0.020453209095576     0.021229820444954
    -0.021229820444954     0.021229820444954     0.020453209095576
   1  45
    -0.076989906050879     0.018575253200032     0.006451907436589
     0.018575253200032    -0.076989906050879     0.006451907436589
     0.014306891503747     0.014306891503747     0.111179251762497
   1  46
    -1.256350767363267    -0.476075373559723     0.476075373559723
    -0.476075373559723    -1.256350767363267     0.476075373559723
     0.476075373559723     0.476075373559723    -1.256350767363267
   1  47
    -0.076989906050879    -0.018575253200032     0.006451907436589
    -0.018575253200032    -0.076989906050879    -0.006451907436589
     0.014306891503747    -0.014306891503747     0.111179251762497
   1  48
    -0.076989906050879    -0.006451907436589     0.018575253200032
    -0.014306891503747     0.111179251762497    -0.014306891503747
     0.018575253200032    -0.006451907436589    -0.076989906050879
   1  49
    -0.076989906050879    -0.018575253200032    -0.006451907436589
    -0.018575253200032    -0.076989906050879     0.006451907436589
    -0.014306891503747     0.014306891503747     0.111179251762497
   1  50
     0.020453209095576    -0.021229820444954     0.021229820444954
    -0.021229820444954     0.020453209095576     0.021229820444954
     0.021229820444954     0.021229820444954     0.020453209095576
   1  51
    -0.076989906050879     0.006451907436589     0.018575253200032
     0.014306891503747     0.111179251762497     0.014306891503747
     0.018575253200032     0.006451907436589    -0.076989906050879
   1  52
     0.111179251762497    -0.014306891503747    -0.014306891503747
    -0.006451907436589    -0.076989906050879     0.018575253200032
    -0.006451907436589     0.018575253200032    -0.076989906050879
   1  53
     0.111179251762497     0.014306891503747     0.014306891503747
     0.006451907436589    -0.076989906050879     0.018575253200032
     0.006451907436589     0.018575253200032    -0.076989906050879
   1  54
     0.014152887675204     0.000000000000000    -0.000000000000000
     0.000000000000000     0.014152887675204    -0.000000000000000
    -0.000000000000000    -0.000000000000000     0.014152887675204
   1  55
    -0.005756175153624    -0.000000000000000    -0.000000000000000
     0.000000000000000    -0.005756175153624    -0.000000000000000
    -0.000000000000000    -0.000000000000000    -0.005756175153624
   1  56
     0.328347005986245    -0.003337190453810    -0.003337190453810
    -0.171811126314101    -0.145871858719472     0.089324026696523
    -0.171811126314101     0.089324026696523    -0.145871858719472
   1  57
     0.328347005986245     0.003337190453810     0.003337190453810
     0.171811126314101    -0.145871858719472     0.089324026696523
     0.171811126314101     0.089324026696523    -0.145871858719472
   1  58
    -0.145871858719472    -0.171811126314101     0.089324026696523
    -0.003337190453810     0.328347005986245    -0.003337190453810
     0.089324026696523    -0.171811126314102    -0.145871858719472
   1  59
     0.060892704837200    -0.049616887340731     0.049616887340731
    -0.049616887340731     0.060892704837200     0.049616887340731
     0.049616887340731     0.049616887340731     0.060892704837200
   1  60
    -0.145871858719472    -0.089324026696523     0.171811126314101
    -0.089324026696523    -0.145871858719472    -0.171811126314101
     0.003337190453810    -0.003337190453810     0.328347005986246
   1  61
    -0.145871858719472     0.171811126314101     0.089324026696523
     0.003337190453810     0.328347005986245     0.003337190453810
     0.089324026696523     0.171811126314102    -0.145871858719472
   1  62
    -0.145871858719472    -0.089324026696523    -0.171811126314101
    -0.089324026696523    -0.145871858719472     0.171811126314101
    -0.003337190453810     0.003337190453810     0.328347005986245
   1  63
    -3.062647202804139    -1.266890162609912     1.266890162609912
    -1.266890162609912    -3.062647202804139     1.266890162609913
     1.266890162609912     1.266890162609913    -3.062647202804138
   1  64
    -0.145871858719472     0.089324026696523    -0.171811126314101
     0.089324026696523    -0.145871858719472    -0.171811126314101
    -0.003337190453810    -0.003337190453810     0.328347005986245
   1  65
     0.060892704837200     0.049616887340731    -0.049616887340731
     0.049616887340731     0.060892704837200     0.049616887340731
    -0.049616887340731     0.049616887340731     0.060892704837200
   1  66
    -0.145871858719472     0.171811126314101    -0.089324026696523
     0.003337190453810     0.328347005986246    -0.003337190453810
    -0.089324026696523    -0.171811126314101    -0.145871858719472
   1  67
     0.060892704837200     0.049616887340731     0.049616887340731
     0.049616887340731     0.060892704837200    -0.049616887340731
     0.049616887340731    -0.049616887340731     0.060892704837200
   1  68
     0.060892704837200    -0.049616887340731    -0.049616887340731
    -0.049616887340731     0.060892704837200    -0.049616887340731
    -0.049616887340731    -0.049616887340731     0.060892704837200
   1  69
     0.079672930615429    -0.000000000000000    -0.000000000000000
    -0.000000000000000     0.173624087311341    -0.137814404546476
    -0.000000000000000    -0.137814404546476     0.173624087311341
   1  70
     0.328347005986246     0.003337190453810    -0.003337190453810
     0.171811126314101    -0.145871858719472    -0.089324026696523
    -0.171811126314101    -0.089324026696523    -0.145871858719472
   1  71
     0.173624087311341     0.000000000000000    -0.137814404546476
    -0.000000000000000     0.079672930615429     0.000000000000000
    -0.137814404546476    -0.000000000000000     0.173624087311341
   1  72
     0.173624087311341     0.137814404546476    -0.000000000000000
     0.137814404546476     0.173624087311341    -0.000000000000000
     0.000000000000000    -0.000000000000000     0.079672930615429
   1  73
    -0.145871858719472     0.089324026696523     0.171811126314101
     0.089324026696523    -0.145871858719472     0.171811126314102
     0.003337190453810     0.003337190453810     0.328347005986245
   1  74
    -0.145871858719472    -0.171811126314101    -0.089324026696523
    -0.003337190453810     0.328347005986246     0.003337190453810
    -0.089324026696523     0.171811126314101    -0.145871858719472
   1  75
    -3.062647202804138     1.266890162609913    -1.266890162609912
     1.266890162609913    -3.062647202804138     1.266890162609912
    -1.266890162609912     1.266890162609913    -3.062647202804137
   1  76
     0.328347005986246    -0.003337190453810     0.003337190453810
    -0.171811126314101    -0.145871858719472    -0.089324026696523
     0.171811126314101    -0.089324026696523    -0.145871858719472
   1  77
     0.173624087311341    -0.137814404546476     0.000000000000000
    -0.137814404546476     0.173624087311341     0.000000000000000
     0.000000000000000    -0.000000000000000     0.079672930615428
   1  78
     0.173624087311341     0.000000000000000     0.137814404546476
     0.000000000000000     0.079672930615429    -0.000000000000000
     0.137814404546476    -0.000000000000000     0.173624087311341
   1  79
    -3.062647202804138     1.266890162609913     1.266890162609912
     1.266890162609913    -3.062647202804139    -1.266890162609913
     1.266890162609912    -1.266890162609913    -3.062647202804137
   1  80
     0.079672930615429     0.000000000000000    -0.000000000000000
     0.000000000000000     0.173624087311341     0.137814404546476
    -0.000000000000000     0.137814404546476     0.173624087311341
   1  81
    -3.062647202804138    -1.266890162609913    -1.266890162609912
    -1.266890162609913    -3.062647202804138    -1.266890162609913
    -1.266890162609912    -1.266890162609913    -3.062647202804137
   2   1
     0.846242110623187    -0.190985652511189    -0.190985652511189
     0.190985652511189    -0.490242738827973    -0.700764386912692
     0.190985652511189    -0.700764386912692    -0.490242738827973
   2   2
    17.540781484423409    -0.000000000000001    -0.000000000000001
    -0.000000000000001    17.540781484423416    -0.000000000000000
    -0.000000000000001    -0.000000000000000    17.540781484423412
   2   3
     0.846242110623186     0.190985652511189     0.190985652511189
    -0.190985652511189    -0.490242738827973    -0.700764386912692
    -0.190985652511189    -0.700764386912692    -0.490242738827973
   2   4
    -0.490242738827973     0.700764386912692     0.190985652511189
     0.700764386912692    -0.490242738827973    -0.190985652511189
    -0.190985652511189     0.190985652511189     0.846242110623186
   2   5
    -0.490242738827973    -0.190985652511189    -0.700764386912692
     0.190985652511189     0.846242110623187     0.190985652511189
    -0.700764386912692    -0.190985652511189    -0.490242738827973
   2   6
    -0.128867156244519     0.055952829265205    -0.055952829265205
     0.055952829265205    -0.128867156244519    -0.055952829265205
    -0.055952829265205    -0.055952829265205    -0.128867156244519
   2   7
    -0.128867156244519     0.055952829265205    -0.055952829265205
     0.055952829265205    -0.128867156244519    -0.055952829265205
    -0.055952829265205    -0.055952829265205    -0.128867156244519
   2   8
    -0.490242738827973     0.190985652511189    -0.700764386912692
    -0.190985652511189     0.846242110623187    -0.190985652511189
    -0.700764386912692     0.190985652511189    -0.490242738827973
   2   9
    -0.490242738827972     0.700764386912693    -0.190985652511189
     0.700764386912692    -0.490242738827973     0.190985652511189
     0.190985652511189    -0.190985652511189     0.846242110623186
   2  10
    -0.490242738827973     0.190985652511189     0.700764386912692
    -0.190985652511189     0.846242110623187     0.190985652511189
     0.700764386912692    -0.190985652511189    -0.490242738827972
   2  11
    -0.490242738827972    -0.700764386912692    -0.190985652511189
    -0.700764386912692    -0.490242738827972    -0.190985652511189
     0.190985652511189     0.190985652511189     0.846242110623187
   2  12
    -0.128867156244519    -0.055952829265205     0.055952829265205
    -0.055952829265205    -0.128867156244519    -0.055952829265205
     0.055952829265205    -0.055952829265205    -0.128867156244519
   2  13
    -0.251995129722446     0.000000000000000    -0.000000000000000
     0.000000000000000     0.067387325669986     0.000000000000000
    -0.000000000000000     0.000000000000000     0.067387325669986
   2  14
    -0.128867156244519    -0.055952829265205    -0.055952829265205
    -0.055952829265205    -0.128867156244519     0.055952829265205
    -0.055952829265205     0.055952829265205    -0.128867156244519
   2  15
    -0.128867156244519     0.055952829265205     0.055952829265205
     0.055952829265205    -0.128867156244519     0.055952829265205
     0.055952829265205     0.055952829265205    -0.128867156244519
   2  16
     0.067387325669986     0.000000000000000     0.000000000000000
    -0.000000000000000     0.067387325669986     0.000000000000000
     0.000000000000000     0.000000000000000    -0.251995129722447
   2  17
     0.846242110623186    -0.190985652511189     0.190985652511189
     0.190985652511189    -0.490242738827973     0.700764386912692
    -0.190985652511189     0.700764386912692    -0.490242738827972
   2  18
     0.067387325669986     0.000000000000000     0.000000000000000
    -0.000000000000000    -0.251995129722447     0.000000000000000
     0.000000000000000     0.000000000000000     0.067387325669986
   2  19
    -0.128867156244519    -0.055952829265205     0.055952829265205
    -0.055952829265205    -0.128867156244519    -0.055952829265205
     0.055952829265205    -0.055952829265205    -0.128867156244519
   2  20
    -0.490242738827972    -0.700764386912693     0.190985652511189
    -0.700764386912692    -0.490242738827973     0.190985652511189
    -0.190985652511189    -0.190985652511189     0.846242110623186
   2  21
    -0.490242738827972    -0.190985652511189     0.700764386912692
     0.190985652511189     0.846242110623187    -0.190985652511189
     0.700764386912692     0.190985652511189    -0.490242738827973
   2  22
     0.067387325669986     0.000000000000000     0.000000000000000
     0.000000000000000    -0.251995129722447     0.000000000000000
    -0.000000000000000     0.000000000000000     0.067387325669986
   2  23
     0.846242110623186     0.190985652511189    -0.190985652511189
    -0.190985652511189    -0.490242738827973     0.700764386912692
     0.190985652511189     0.700764386912692    -0.490242738827973
   2  24
     0.067387325669986     0.000000000000000     0.000000000000000
     0.000000000000000     0.067387325669986     0.000000000000000
    -0.000000000000000     0.000000000000000    -0.251995129722447
   2  25
    -0.128867156244519     0.055952829265205     0.055952829265205
     0.055952829265205    -0.128867156244519     0.055952829265205
     0.055952829265205     0.055952829265205    -0.128867156244519
   2  26
    -0.128867156244519    -0.055952829265205    -0.055952829265205
    -0.055952829265205    -0.128867156244519     0.055952829265205
    -0.055952829265205     0.055952829265205    -0.128867156244519
   2  27
    -0.251995129722446     0.000000000000000     0.000000000000000
     0.000000000000000     0.067387325669986     0.000000000000000
     0.000000000000000     0.000000000000000     0.067387325669986
   2  28
    -1.256350767363267     0.476075373559723     0.476075373559723
     0.476075373559723    -1.256350767363267    -0.476075373559723
     0.476075373559723    -0.476075373559723    -1.256350767363267
   2  29
    -1.256350767363267    -0.476075373559723    -0.476075373559723
    -0.476075373559723    -1.256350767363267    -0.476075373559723
    -0.476075373559723    -0.476075373559723    -1.256350767363267
   2  30
    -0.014034509943235     0.000000000000000     0.000000000000000
     0.000000000000000     0.100700813148789     0.097181043695678
     0.000000000000000     0.097181043695678     0.100700813148789
   2  31
     0.111179251762497     0.014306891503747    -0.014306891503747
     0.006451907436589    -0.076989906050879    -0.018575253200032
    -0.006451907436589    -0.018575253200032    -0.076989906050879
   2  32
     0.100700813148789     0.000000000000000     0.097181043695678
    -0.000000000000000    -0.014034509943235     0.000000000000000
     0.097181043695678     0.000000000000000     0.100700813148789
   2  33
     0.100700813148789    -0.097181043695678     0.000000000000000
    -0.097181043695678     0.100700813148789     0.000000000000000
    -0.000000000000000     0.000000000000000    -0.014034509943235
   2  34
    -0.076989906050879     0.018575253200032    -0.006451907436589
     0.018575253200032    -0.076989906050879    -0.006451907436589
    -0.014306891503747    -0.014306891503747     0.111179251762497
   2  35
    -1.256350767363267     0.476075373559723    -0.476075373559723
     0.476075373559723    -1.256350767363267     0.476075373559723
    -0.476075373559723     0.476075373559723    -1.256350767363267
   2  36
    -0.076989906050879     0.006451907436589    -0.018575253200032
     0.014306891503747     0.111179251762497    -0.014306891503747
    -0.018575253200032    -0.006451907436589    -0.076989906050879
   2  37
     0.111179251762497    -0.014306891503747     0.014306891503747
    -0.006451907436589    -0.076989906050879    -0.018575253200032
     0.006451907436589    -0.018575253200032    -0.076989906050879
   2  38
     0.100700813148789     0.097181043695678     0.000000000000000
     0.097181043695677     0.100700813148789     0.000000000000000
    -0.000000000000000     0.000000000000000    -0.014034509943235
   2  39
     0.100700813148789     0.000000000000000    -0.097181043695678
    -0.000000000000000    -0.014034509943235     0.000000000000000
    -0.097181043695678     0.000000000000000     0.100700813148789
   2  40
     0.020453209095576     0.021229820444954     0.021229820444954
     0.021229820444954     0.020453209095576    -0.021229820444954
     0.021229820444954    -0.021229820444954     0.020453209095576
   2  41
    -0.014034509943235     0.000000000000000    -0.000000000000000
    -0.000000000000000     0.100700813148789    -0.097181043695678
    -0.000000000000000    -0.097181043695678     0.100700813148789
   2  42
     0.020453209095576    -0.021229820444954    -0.021229820444954
    -0.021229820444954     0.020453209095576    -0.021229820444954
    -0.021229820444954    -0.021229820444954     0.020453209095576
   2  43
    -0.076989906050879     0.018575253200032     0.006451907436589
     0.018575253200032    -0.076989906050879     0.006451907436589
     0.014306891503747     0.014306891503747     0.111179251762497
   2  44
    -0.076989906050879    -0.006451907436589    -0.018575253200032
    -0.014306891503747     0.111179251762497     0.014306891503747
    -0.018575253200032     0.006451907436589    -0.076989906050879
   2  45
     0.020453209095576     0.021229820444954    -0.021229820444954
     0.021229820444954     0.020453209095576     0.021229820444954
    -0.021229820444954     0.021229820444954     0.020453209095576
   2  46
    -0.076989906050879    -0.006451907436589     0.018575253200032
    -0.014306891503747     0.111179251762497    -0.014306891503747
     0.018575253200032    -0.006451907436589    -0.076989906050879
   2  47
    -1.256350767363266    -0.476075373559723     0.476075373559723
    -0.476075373559723    -1.256350767363267     0.476075373559723
     0.476075373559723     0.476075373559723    -1.256350767363267
   2  48
    -0.076989906050879    -0.018575253200032     0.006451907436589
    -0.018575253200032    -0.076989906050879    -0.006451907436589
     0.014306891503747    -0.014306891503747     0.111179251762497
   2  49
    -0.076989906050879     0.006451907436589     0.018575253200032
     0.014306891503747     0.111179251762497     0.014306891503747
     0.018575253200032     0.006451907436589    -0.076989906050879
   2  50
    -0.076989906050879    -0.018575253200032    -0.006451907436589
    -0.018575253200032    -0.076989906050879     0.006451907436589
    -0.014306891503747     0.014306891503747     0.111179251762497
   2  51
     0.020453209095576    -0.021229820444954     0.021229820444954
    -0.021229820444954     0.020453209095576     0.021229820444954
     0.021229820444954     0.021229820444954     0.020453209095576
   2  52
     0.014152887675204     0.000000000000000     0.000000000000000
     0.000000000000000     0.014152887675204     0.000000000000000
    -0.000000000000000     0.000000000000000     0.014152887675204
   2  53
     0.111179251762497    -0.014306891503747    -0.014306891503747
    -0.006451907436589    -0.076989906050879     0.018575253200032
    -0.006451907436589     0.018575253200032    -0.076989906050879
   2  54
     0.111179251762497     0.014306891503747     0.014306891503747
     0.006451907436589    -0.076989906050879     0.018575253200032
     0.006451907436589     0.018575253200032    -0.076989906050879
   2  55
     0.328347005986245     0.003337190453810     0.003337190453810
     0.171811126314101    -0.145871858719472     0.089324026696523
     0.171811126314101     0.089324026696523    -0.145871858719472
   2  56
    -0.005756175153624     0.000000000000000     0.000000000000000
     0.000000000000000    -0.005756175153624     0.000000000000000
     0.000000000000000     0.000000000000000    -0.005756175153624
   2  57
     0.328347005986245    -0.003337190453810    -0.003337190453810
    -0.171811126314102    -0.145871858719472     0.089324026696523
    -0.171811126314101     0.089324026696523    -0.145871858719472
   2  58
    -0.145871858719472    -0.089324026696523     0.171811126314101
    -0.089324026696523    -0.145871858719472    -0.171811126314101
     0.003337190453810    -0.003337190453810     0.328347005986245
   2  59
    -0.145871858719472    -0.171811126314102     0.089324026696523
    -0.003337190453810     0.328347005986245    -0.003337190453810
     0.089324026696523    -0.171811126314101    -0.145871858719472
   2  60
     0.060892704837200    -0.049616887340731     0.049616887340731
    -0.049616887340731     0.060892704837200     0.049616887340731
     0.049616887340731     0.049616887340731     0.060892704837200
   2  61
    -3.062647202804138    -1.266890162609913     1.266890162609913
    -1.266890162609912    -3.062647202804138     1.266890162609912
     1.266890162609912     1.266890162609913    -3.062647202804139
   2  62
    -0.145871858719472     0.171811126314101     0.089324026696523
     0.003337190453810     0.328347005986245     0.003337190453810