 2139
 
    1
  0.000  0.000  0.000
  0.000  0.000  0.000
 1 1 1
 1 1 1    0.0000000000E+00
 1 1 2    0.0000000000E+00
 1 1 3    0.0000000000E+00
 1 2 1    0.0000000000E+00
 1 2 2    0.0000000000E+00
 1 2 3   -0.2914763939E+01
 1 3 1    0.0000000000E+00
 1 3 2   -0.2914763939E+01
 1 3 3    0.0000000000E+00
 2 1 1    0.0000000000E+00
 2 1 2    0.0000000000E+00
 2 1 3   -0.2914763939E+01
 2 2 1    0.0000000000E+00
 2 2 2    0.0000000000E+00
 2 2 3    0.0000000000E+00
 2 3 1   -0.2914763939E+01
 2 3 2    0.0000000000E+00
 2 3 3    0.0000000000E+00
 3 1 1    0.0000000000E+00
 3 1 2   -0.2914763939E+01
 3 1 3    0.0000000000E+00
 3 2 1   -0.2914763939E+01
 3 2 2    0.0000000000E+00
 3 2 3    0.0000000000E+00
 3 3 1    0.0000000000E+00
 3 3 2    0.0000000000E+00
 3 3 3    0.0000000000E+00
 
    2
  0.000  0.000  0.000
  0.000  0.000  0.000
 1 1 2
 1 1 1   -0.3885824208E+01
 1 1 2   -0.3483240336E+01
 1 1 3   -0.3483240336E+01
 1 2 1   -0.3066702293E+01
 1 2 2   -0.3066702293E+01
 1 2 3   -0.3729290564E+01
 1 3 1   -0.3066702293E+01
 1 3 2   -0.3729290564E+01
 1 3 3   -0.3066702293E+01
 2 1 1   -0.3066702293E+01
 2 1 2   -0.3066702293E+01
 2 1 3   -0.3729290564E+01
 2 2 1   -0.3483240336E+01
 2 2 2   -0.3885824208E+01
 2 2 3   -0.3483240336E+01
 2 3 1   -0.3729290564E+01
 2 3 2   -0.3066702293E+01
 2 3 3   -0.3066702293E+01
 3 1 1   -0.3066702293E+01
 3 1 2   -0.3729290564E+01
 3 1 3   -0.3066702293E+01
 3 2 1   -0.3729290564E+01
 3 2 2   -0.3066702293E+01
 3 2 3   -0.3066702293E+01
 3 3 1   -0.3483240336E+01
 3 3 2   -0.3483240336E+01
 3 3 3   -0.3885824208E+01
 
    3
  0.000  0.000  0.000
  0.000  0.000  0.000
 1 1 3
 1 1 1   -0.5851307865E+01
 1 1 2   -0.3643023408E+01
 1 1 3    0.3643023408E+01
 1 2 1   -0.5162425284E+01
 1 2 2   -0.5162425284E+01
 1 2 3    0.4569826103E+01
 1 3 1    0.5162425284E+01
 1 3 2    0.4569826103E+01
 1 3 3   -0.5162425284E+01
 2 1 1   -0.5162425284E+01
 2 1 2   -0.5162425284E+01
 2 1 3    0.4569826103E+01
 2 2 1   -0.3643023408E+01
 2 2 2   -0.5851307865E+01
 2 2 3    0.3643023408E+01
 2 3 1    0.4569826103E+01
 2 3 2    0.5162425284E+01
 2 3 3   -0.5162425284E+01
 3 1 1    0.5162425284E+01
 3 1 2    0.4569826103E+01
 3 1 3   -0.5162425284E+01
 3 2 1    0.4569826103E+01
 3 2 2    0.5162425284E+01
 3 2 3   -0.5162425284E+01
 3 3 1   -0.3643023408E+01
 3 3 2   -0.3643023408E+01
 3 3 3    0.5851307865E+01
 
    4
  0.000  0.000  0.000
  0.000  2.764  2.764
 1 1 1
 1 1 1   -0.4555570480E+00
 1 1 2    0.5098595194E-01
 1 1 3    0.5098595194E-01
 1 2 1    0.5962845070E+00
 1 2 2    0.8070444300E-01
 1 2 3    0.1731615891E-01
 1 3 1    0.5962845070E+00
 1 3 2    0.1731615891E-01
 1 3 3    0.8070444300E-01
 2 1 1    0.5962845070E+00
 2 1 2    0.8070444300E-01
 2 1 3    0.1731615891E-01
 2 2 1    0.4135166340E+00
 2 2 2   -0.4825619727E+00
 2 2 3   -0.8993155496E+00
 2 3 1   -0.2628099796E+00
 2 3 2   -0.9358671970E+00
 2 3 3   -0.9358671970E+00
 3 1 1    0.5962845070E+00
 3 1 2    0.1731615891E-01
 3 1 3    0.8070444300E-01
 3 2 1   -0.2628099796E+00
 3 2 2   -0.9358671970E+00
 3 2 3   -0.9358671970E+00
 3 3 1    0.4135166340E+00
 3 3 2   -0.8993155496E+00
 3 3 3   -0.4825619727E+00
 
    5
  0.000  0.000  0.000
  0.000  2.764  2.764
 1 1 3
 1 1 1   -0.1125611122E+00
 1 1 2   -0.6450436095E-01
 1 1 3    0.6399106928E-01
 1 2 1   -0.2435900905E+00
 1 2 2    0.2273795473E+00
 1 2 3   -0.3532665280E-01
 1 3 1   -0.1029119451E+00
 1 3 2    0.1117718578E+00
 1 3 3   -0.1029119451E+00
 2 1 1   -0.2435900905E+00
 2 1 2    0.2273795473E+00
 2 1 3   -0.3532665280E-01
 2 2 1   -0.7335204185E-01
 2 2 2    0.1813653145E+00
 2 2 3   -0.7335204185E-01
 2 3 1   -0.3532665280E-01
 2 3 2    0.2273795473E+00
 2 3 3   -0.2435900905E+00
 3 1 1   -0.1029119451E+00
 3 1 2    0.1117718578E+00
 3 1 3   -0.1029119451E+00
 3 2 1   -0.3532665280E-01
 3 2 2    0.2273795473E+00
 3 2 3   -0.2435900905E+00
 3 3 1    0.6399106928E-01
 3 3 2   -0.6450436095E-01
 3 3 3   -0.1125611122E+00
 
    6
  0.000  0.000  0.000
  0.000 -2.764 -2.764
 1 1 1
 1 1 1   -0.4555570480E+00
 1 1 2   -0.5098595194E-01
 1 1 3   -0.5098595194E-01
 1 2 1   -0.5962845070E+00
 1 2 2    0.8070444300E-01
 1 2 3    0.1731615891E-01
 1 3 1   -0.5962845070E+00
 1 3 2    0.1731615891E-01
 1 3 3    0.8070444300E-01
 2 1 1   -0.5962845070E+00
 2 1 2    0.8070444300E-01
 2 1 3    0.1731615891E-01
 2 2 1    0.4135166340E+00
 2 2 2    0.4825619727E+00
 2 2 3    0.8993155496E+00
 2 3 1   -0.2628099796E+00
 2 3 2    0.9358671970E+00
 2 3 3    0.9358671970E+00
 3 1 1   -0.5962845070E+00
 3 1 2    0.1731615891E-01
 3 1 3    0.8070444300E-01
 3 2 1   -0.2628099796E+00
 3 2 2    0.9358671970E+00
 3 2 3    0.9358671970E+00
 3 3 1    0.4135166340E+00
 3 3 2    0.8993155496E+00
 3 3 3    0.4825619727E+00
 
    7
  0.000  0.000  0.000
  0.000 -2.764 -2.764
 1 1 2
 1 1 1   -0.3885824208E+01
 1 1 2    0.3483240336E+01
 1 1 3    0.3483240336E+01
 1 2 1    0.3066702293E+01
 1 2 2   -0.3066702293E+01
 1 2 3   -0.3729290564E+01
 1 3 1    0.3066702293E+01
 1 3 2   -0.3729290564E+01
 1 3 3   -0.3066702293E+01
 2 1 1    0.3066702293E+01
 2 1 2   -0.3066702293E+01
 2 1 3   -0.3729290564E+01
 2 2 1   -0.3483240336E+01
 2 2 2    0.3885824208E+01
 2 2 3    0.3483240336E+01
 2 3 1   -0.3729290564E+01
 2 3 2    0.3066702293E+01
 2 3 3    0.3066702293E+01
 3 1 1    0.3066702293E+01
 3 1 2   -0.3729290564E+01
 3 1 3   -0.3066702293E+01
 3 2 1   -0.3729290564E+01
 3 2 2    0.3066702293E+01
 3 2 3    0.3066702293E+01
 3 3 1   -0.3483240336E+01
 3 3 2    0.3483240336E+01
 3 3 3    0.3885824208E+01
 
    8
  0.000  0.000  0.000
  0.000 -2.764 -2.764
 1 1 3
 1 1 1   -0.1125611122E+00
 1 1 2   -0.6399106928E-01
 1 1 3    0.6450436095E-01
 1 2 1    0.1029119451E+00
 1 2 2   -0.1029119451E+00
 1 2 3    0.1117718578E+00
 1 3 1    0.2435900905E+00
 1 3 2   -0.3532665280E-01
 1 3 3    0.2273795473E+00
 2 1 1    0.1029119451E+00
 2 1 2   -0.1029119451E+00
 2 1 3    0.1117718578E+00
 2 2 1    0.6399106928E-01
 2 2 2    0.1125611122E+00
 2 2 3    0.6450436095E-01
 2 3 1   -0.3532665280E-01
 2 3 2    0.2435900905E+00
 2 3 3   -0.2273795473E+00
 3 1 1    0.2435900905E+00
 3 1 2   -0.3532665280E-01
 3 1 3    0.2273795473E+00
 3 2 1   -0.3532665280E-01
 3 2 2    0.2435900905E+00
 3 2 3   -0.2273795473E+00
 3 3 1   -0.7335204185E-01
 3 3 2    0.7335204185E-01
 3 3 3   -0.1813653145E+00
 
    9
  0.000  0.000  0.000
  2.764  0.000  2.764
 1 1 1
 1 1 1   -0.4825619727E+00
 1 1 2    0.4135166340E+00
 1 1 3   -0.8993155496E+00
 1 2 1    0.8070444300E-01
 1 2 2    0.5962845070E+00
 1 2 3    0.1731615891E-01
 1 3 1   -0.9358671970E+00
 1 3 2   -0.2628099796E+00
 1 3 3   -0.9358671970E+00
 2 1 1    0.8070444300E-01
 2 1 2    0.5962845070E+00
 2 1 3    0.1731615891E-01
 2 2 1    0.5098595194E-01
 2 2 2   -0.4555570480E+00
 2 2 3    0.5098595194E-01
 2 3 1    0.1731615891E-01
 2 3 2    0.5962845070E+00
 2 3 3    0.8070444300E-01
 3 1 1   -0.9358671970E+00
 3 1 2   -0.2628099796E+00
 3 1 3   -0.9358671970E+00
 3 2 1    0.1731615891E-01
 3 2 2    0.5962845070E+00
 3 2 3    0.8070444300E-01
 3 3 1   -0.8993155496E+00
 3 3 2    0.4135166340E+00
 3 3 3   -0.4825619727E+00
 
   10
  0.000  0.000  0.000
  2.764  0.000  2.764
 1 1 3
 1 1 1    0.1813653145E+00
 1 1 2   -0.7335204185E-01
 1 1 3   -0.7335204185E-01
 1 2 1    0.2273795473E+00
 1 2 2   -0.2435900905E+00
 1 2 3   -0.3532665280E-01
 1 3 1    0.2273795473E+00
 1 3 2   -0.3532665280E-01
 1 3 3   -0.2435900905E+00
 2 1 1    0.2273795473E+00
 2 1 2   -0.2435900905E+00
 2 1 3   -0.3532665280E-01
 2 2 1   -0.6450436095E-01
 2 2 2   -0.1125611122E+00
 2 2 3    0.6399106928E-01
 2 3 1    0.1117718578E+00
 2 3 2   -0.1029119451E+00
 2 3 3   -0.1029119451E+00
 3 1 1    0.2273795473E+00
 3 1 2   -0.3532665280E-01
 3 1 3   -0.2435900905E+00
 3 2 1    0.1117718578E+00
 3 2 2   -0.1029119451E+00
 3 2 3   -0.1029119451E+00
 3 3 1   -0.6450436095E-01
 3 3 2    0.6399106928E-01
 3 3 3   -0.1125611122E+00
 
   11
  0.000  0.000  0.000
  2.764 -2.764  0.000
 1 1 1
 1 1 1   -0.4825619727E+00
 1 1 2    0.8993155496E+00
 1 1 3   -0.4135166340E+00
 1 2 1    0.9358671970E+00
 1 2 2   -0.9358671970E+00
 1 2 3   -0.2628099796E+00
 1 3 1   -0.8070444300E-01
 1 3 2    0.1731615891E-01
 1 3 3    0.5962845070E+00
 2 1 1    0.9358671970E+00
 2 1 2   -0.9358671970E+00
 2 1 3   -0.2628099796E+00
 2 2 1   -0.8993155496E+00
 2 2 2    0.4825619727E+00
 2 2 3   -0.4135166340E+00
 2 3 1    0.1731615891E-01
 2 3 2   -0.8070444300E-01
 2 3 3   -0.5962845070E+00
 3 1 1   -0.8070444300E-01
 3 1 2    0.1731615891E-01
 3 1 3    0.5962845070E+00
 3 2 1    0.1731615891E-01
 3 2 2   -0.8070444300E-01
 3 2 3   -0.5962845070E+00
 3 3 1    0.5098595194E-01
 3 3 2   -0.5098595194E-01
 3 3 3    0.4555570480E+00
 
   12
  0.000  0.000  0.000
  2.764 -2.764  0.000
 1 1 2
 1 1 1    0.8245541877E-01
 1 1 2    0.8174659795E-02
 1 1 3   -0.8174659795E-02
 1 2 1   -0.1626684961E-01
 1 2 2   -0.1569233929E+00
 1 2 3   -0.6829385066E-01
 1 3 1    0.1626684961E-01
 1 3 2   -0.6829385066E-01
 1 3 3   -0.1569233929E+00
 2 1 1   -0.1626684961E-01
 2 1 2   -0.1569233929E+00
 2 1 3   -0.6829385066E-01
 2 2 1   -0.2131320145E+00
 2 2 2    0.1643256534E-01
 2 2 3    0.9087823975E-01
 2 3 1    0.2118022567E+00
 2 3 2    0.9026682272E-02
 2 3 3   -0.9026682272E-02
 3 1 1    0.1626684961E-01
 3 1 2   -0.6829385066E-01
 3 1 3   -0.1569233929E+00
 3 2 1    0.2118022567E+00
 3 2 2    0.9026682272E-02
 3 2 3   -0.9026682272E-02
 3 3 1   -0.2131320145E+00
 3 3 2   -0.9087823975E-01
 3 3 3   -0.1643256534E-01
 
   13
  0.000  0.000  0.000
  2.764 -2.764  0.000
 1 1 3
 1 1 1    0.1813653145E+00
 1 1 2    0.7335204185E-01
 1 1 3    0.7335204185E-01
 1 2 1   -0.2273795473E+00
 1 2 2   -0.2435900905E+00
 1 2 3   -0.3532665280E-01
 1 3 1   -0.2273795473E+00
 1 3 2   -0.3532665280E-01
 1 3 3   -0.2435900905E+00
 2 1 1   -0.2273795473E+00
 2 1 2   -0.2435900905E+00
 2 1 3   -0.3532665280E-01
 2 2 1   -0.6450436095E-01
 2 2 2    0.1125611122E+00
 2 2 3   -0.6399106928E-01
 2 3 1    0.1117718578E+00
 2 3 2    0.1029119451E+00
 2 3 3    0.1029119451E+00
 3 1 1   -0.2273795473E+00
 3 1 2   -0.3532665280E-01
 3 1 3   -0.2435900905E+00
 3 2 1    0.1117718578E+00
 3 2 2    0.1029119451E+00
 3 2 3    0.1029119451E+00
 3 3 1   -0.6450436095E-01
 3 3 2   -0.6399106928E-01
 3 3 3    0.1125611122E+00
 
   14
  0.000  0.000  0.000
 -2.764  0.000 -2.764
 1 1 1
 1 1 1    0.4825619727E+00
 1 1 2    0.4135166340E+00
 1 1 3    0.8993155496E+00
 1 2 1    0.8070444300E-01
 1 2 2   -0.5962845070E+00
 1 2 3    0.1731615891E-01
 1 3 1    0.9358671970E+00
 1 3 2   -0.2628099796E+00
 1 3 3    0.9358671970E+00
 2 1 1    0.8070444300E-01
 2 1 2   -0.5962845070E+00
 2 1 3    0.1731615891E-01
 2 2 1   -0.5098595194E-01
 2 2 2   -0.4555570480E+00
 2 2 3   -0.5098595194E-01
 2 3 1    0.1731615891E-01
 2 3 2   -0.5962845070E+00
 2 3 3    0.8070444300E-01
 3 1 1    0.9358671970E+00
 3 1 2   -0.2628099796E+00
 3 1 3    0.9358671970E+00
 3 2 1    0.1731615891E-01
 3 2 2   -0.5962845070E+00
 3 2 3    0.8070444300E-01
 3 3 1    0.8993155496E+00
 3 3 2    0.4135166340E+00
 3 3 3    0.4825619727E+00
 
   15
  0.000  0.000  0.000
 -2.764  0.000 -2.764
 1 1 2
 1 1 1    0.3885824208E+01
 1 1 2   -0.3483240336E+01
 1 1 3    0.3483240336E+01
 1 2 1   -0.3066702293E+01
 1 2 2    0.3066702293E+01
 1 2 3   -0.3729290564E+01
 1 3 1    0.3066702293E+01
 1 3 2   -0.3729290564E+01
 1 3 3    0.3066702293E+01
 2 1 1   -0.3066702293E+01
 2 1 2    0.3066702293E+01
 2 1 3   -0.3729290564E+01
 2 2 1    0.3483240336E+01
 2 2 2   -0.3885824208E+01
 2 2 3    0.3483240336E+01
 2 3 1   -0.3729290564E+01
 2 3 2    0.3066702293E+01
 2 3 3   -0.3066702293E+01
 3 1 1    0.3066702293E+01
 3 1 2   -0.3729290564E+01
 3 1 3    0.3066702293E+01
 3 2 1   -0.3729290564E+01
 3 2 2    0.3066702293E+01
 3 2 3   -0.3066702293E+01
 3 3 1    0.3483240336E+01
 3 3 2   -0.3483240336E+01
 3 3 3    0.3885824208E+01
 
   16
  0.000  0.000  0.000
 -2.764  0.000 -2.764
 1 1 3
 1 1 1    0.1125611122E+00
 1 1 2    0.6399106928E-01
 1 1 3    0.6450436095E-01
 1 2 1   -0.1029119451E+00
 1 2 2    0.1029119451E+00
 1 2 3    0.1117718578E+00
 1 3 1    0.2435900905E+00
 1 3 2   -0.3532665280E-01
 1 3 3   -0.2273795473E+00
 2 1 1   -0.1029119451E+00
 2 1 2    0.1029119451E+00
 2 1 3    0.1117718578E+00
 2 2 1   -0.6399106928E-01
 2 2 2   -0.1125611122E+00
 2 2 3    0.6450436095E-01
 2 3 1   -0.3532665280E-01
 2 3 2    0.2435900905E+00
 2 3 3    0.2273795473E+00
 3 1 1    0.2435900905E+00
 3 1 2   -0.3532665280E-01
 3 1 3   -0.2273795473E+00
 3 2 1   -0.3532665280E-01
 3 2 2    0.2435900905E+00
 3 2 3    0.2273795473E+00
 3 3 1    0.7335204185E-01
 3 3 2   -0.7335204185E-01
 3 3 3   -0.1813653145E+00
 
   17
  0.000  0.000  0.000
 -2.764  2.764  0.000
 1 1 1
 1 1 1    0.4825619727E+00
 1 1 2   -0.8993155496E+00
 1 1 3   -0.4135166340E+00
 1 2 1   -0.9358671970E+00
 1 2 2    0.9358671970E+00
 1 2 3   -0.2628099796E+00
 1 3 1   -0.8070444300E-01
 1 3 2    0.1731615891E-01
 1 3 3   -0.5962845070E+00
 2 1 1   -0.9358671970E+00
 2 1 2    0.9358671970E+00
 2 1 3   -0.2628099796E+00
 2 2 1    0.8993155496E+00
 2 2 2   -0.4825619727E+00
 2 2 3   -0.4135166340E+00
 2 3 1    0.1731615891E-01
 2 3 2   -0.8070444300E-01
 2 3 3    0.5962845070E+00
 3 1 1   -0.8070444300E-01
 3 1 2    0.1731615891E-01
 3 1 3   -0.5962845070E+00
 3 2 1    0.1731615891E-01
 3 2 2   -0.8070444300E-01
 3 2 3    0.5962845070E+00
 3 3 1   -0.5098595194E-01
 3 3 2    0.5098595194E-01
 3 3 3    0.4555570480E+00
 
   18
  0.000  0.000  0.000
 -2.764  2.764  0.000
 1 1 2
 1 1 1    0.1643256534E-01
 1 1 2   -0.2131320145E+00
 1 1 3    0.9087823975E-01
 1 2 1   -0.1569233929E+00
 1 2 2   -0.1626684961E-01
 1 2 3   -0.6829385066E-01
 1 3 1    0.9026682272E-02
 1 3 2    0.2118022567E+00
 1 3 3   -0.9026682272E-02
 2 1 1   -0.1569233929E+00
 2 1 2   -0.1626684961E-01
 2 1 3   -0.6829385066E-01
 2 2 1    0.8174659795E-02
 2 2 2    0.8245541877E-01
 2 2 3   -0.8174659795E-02
 2 3 1   -0.6829385066E-01
 2 3 2    0.1626684961E-01
 2 3 3   -0.1569233929E+00
 3 1 1    0.9026682272E-02
 3 1 2    0.2118022567E+00
 3 1 3   -0.9026682272E-02
 3 2 1   -0.6829385066E-01
 3 2 2    0.1626684961E-01
 3 2 3   -0.1569233929E+00
 3 3 1   -0.9087823975E-01
 3 3 2   -0.2131320145E+00
 3 3 3   -0.1643256534E-01
 
   19
  0.000  0.000  0.000
 -2.764  2.764  0.000
 1 1 3
 1 1 1    0.1125611122E+00
 1 1 2   -0.6450436095E-01
 1 1 3   -0.6399106928E-01
 1 2 1   -0.2435900905E+00
 1 2 2   -0.2273795473E+00
 1 2 3   -0.3532665280E-01
 1 3 1    0.1029119451E+00
 1 3 2    0.1117718578E+00
 1 3 3    0.1029119451E+00
 2 1 1   -0.2435900905E+00
 2 1 2   -0.2273795473E+00
 2 1 3   -0.3532665280E-01
 2 2 1    0.7335204185E-01
 2 2 2    0.1813653145E+00
 2 2 3    0.7335204185E-01
 2 3 1   -0.3532665280E-01
 2 3 2   -0.2273795473E+00
 2 3 3   -0.2435900905E+00
 3 1 1    0.1029119451E+00
 3 1 2    0.1117718578E+00
 3 1 3    0.1029119451E+00
 3 2 1   -0.3532665280E-01
 3 2 2   -0.2273795473E+00
 3 2 3   -0.2435900905E+00
 3 3 1   -0.6399106928E-01
 3 3 2   -0.6450436095E-01
 3 3 3    0.1125611122E+00
 
   20
  0.000  0.000  0.000
 -2.764 -2.764 -5.529
 1 1 2
 1 1 1    0.1643256534E-01
 1 1 2   -0.9087823975E-01
 1 1 3    0.2131320145E+00
 1 2 1   -0.9026682272E-02
 1 2 2   -0.9026682272E-02
 1 2 3    0.2118022567E+00
 1 3 1    0.1569233929E+00
 1 3 2   -0.6829385066E-01
 1 3 3   -0.1626684961E-01
 2 1 1   -0.9026682272E-02
 2 1 2   -0.9026682272E-02
 2 1 3    0.2118022567E+00
 2 2 1   -0.9087823975E-01
 2 2 2    0.1643256534E-01
 2 2 3    0.2131320145E+00
 2 3 1   -0.6829385066E-01
 2 3 2    0.1569233929E+00
 2 3 3   -0.1626684961E-01
 3 1 1    0.1569233929E+00
 3 1 2   -0.6829385066E-01
 3 1 3   -0.1626684961E-01
 3 2 1   -0.6829385066E-01
 3 2 2    0.1569233929E+00
 3 2 3   -0.1626684961E-01
 3 3 1    0.8174659795E-02
 3 3 2    0.8174659795E-02
 3 3 3   -0.8245541877E-01
 
   21
  0.000  0.000  0.000
  2.764  2.764  0.000
 1 1 1
 1 1 1   -0.4825619727E+00
 1 1 2   -0.8993155496E+00
 1 1 3    0.4135166340E+00
 1 2 1   -0.9358671970E+00
 1 2 2   -0.9358671970E+00
 1 2 3   -0.2628099796E+00
 1 3 1    0.8070444300E-01
 1 3 2    0.1731615891E-01
 1 3 3    0.5962845070E+00
 2 1 1   -0.9358671970E+00
 2 1 2   -0.9358671970E+00
 2 1 3   -0.2628099796E+00
 2 2 1   -0.8993155496E+00
 2 2 2   -0.4825619727E+00
 2 2 3    0.4135166340E+00
 2 3 1    0.1731615891E-01
 2 3 2    0.8070444300E-01
 2 3 3    0.5962845070E+00
 3 1 1    0.8070444300E-01
 3 1 2    0.1731615891E-01
 3 1 3    0.5962845070E+00
 3 2 1    0.1731615891E-01
 3 2 2    0.8070444300E-01
 3 2 3    0.5962845070E+00
 3 3 1    0.5098595194E-01
 3 3 2    0.5098595194E-01
 3 3 3   -0.4555570480E+00
 
   22
  0.000  0.000  0.000
  2.764  0.000 -2.764
 1 1 1
 1 1 1   -0.4825619727E+00
 1 1 2   -0.4135166340E+00
 1 1 3    0.8993155496E+00
 1 2 1   -0.8070444300E-01
 1 2 2    0.5962845070E+00
 1 2 3    0.1731615891E-01
 1 3 1    0.9358671970E+00
 1 3 2   -0.2628099796E+00
 1 3 3   -0.9358671970E+00
 2 1 1   -0.8070444300E-01
 2 1 2    0.5962845070E+00
 2 1 3    0.1731615891E-01
 2 2 1    0.5098595194E-01
 2 2 2    0.4555570480E+00
 2 2 3   -0.5098595194E-01
 2 3 1    0.1731615891E-01
 2 3 2   -0.5962845070E+00
 2 3 3   -0.8070444300E-01
 3 1 1    0.9358671970E+00
 3 1 2   -0.2628099796E+00
 3 1 3   -0.9358671970E+00
 3 2 1    0.1731615891E-01
 3 2 2   -0.5962845070E+00
 3 2 3   -0.8070444300E-01
 3 3 1   -0.8993155496E+00
 3 3 2   -0.4135166340E+00
 3 3 3    0.4825619727E+00
 
   23
  0.000  0.000  0.000
  2.764  0.000 -2.764
 1 1 2
 1 1 1    0.8245541877E-01
 1 1 2   -0.8174659795E-02
 1 1 3    0.8174659795E-02
 1 2 1    0.1626684961E-01
 1 2 2   -0.1569233929E+00
 1 2 3   -0.6829385066E-01
 1 3 1   -0.1626684961E-01
 1 3 2   -0.6829385066E-01
 1 3 3   -0.1569233929E+00
 2 1 1    0.1626684961E-01
 2 1 2   -0.1569233929E+00
 2 1 3   -0.6829385066E-01
 2 2 1   -0.2131320145E+00
 2 2 2   -0.1643256534E-01
 2 2 3   -0.9087823975E-01
 2 3 1    0.2118022567E+00
 2 3 2   -0.9026682272E-02
 2 3 3    0.9026682272E-02
 3 1 1   -0.1626684961E-01
 3 1 2   -0.6829385066E-01
 3 1 3   -0.1569233929E+00
 3 2 1    0.2118022567E+00
 3 2 2   -0.9026682272E-02
 3 2 3    0.9026682272E-02
 3 3 1   -0.2131320145E+00
 3 3 2    0.9087823975E-01
 3 3 3    0.1643256534E-01
 
   24
  0.000  0.000  0.000
  0.000  2.764 -2.764
 1 1 1
 1 1 1    0.4555570480E+00
 1 1 2    0.5098595194E-01
 1 1 3   -0.5098595194E-01
 1 2 1    0.5962845070E+00
 1 2 2   -0.8070444300E-01
 1 2 3    0.1731615891E-01
 1 3 1   -0.5962845070E+00
 1 3 2    0.1731615891E-01
 1 3 3   -0.8070444300E-01
 2 1 1    0.5962845070E+00
 2 1 2   -0.8070444300E-01
 2 1 3    0.1731615891E-01
 2 2 1   -0.4135166340E+00
 2 2 2   -0.4825619727E+00
 2 2 3    0.8993155496E+00
 2 3 1   -0.2628099796E+00
 2 3 2    0.9358671970E+00
 2 3 3   -0.9358671970E+00
 3 1 1   -0.5962845070E+00
 3 1 2    0.1731615891E-01
 3 1 3   -0.8070444300E-01
 3 2 1   -0.2628099796E+00
 3 2 2    0.9358671970E+00
 3 2 3   -0.9358671970E+00
 3 3 1   -0.4135166340E+00
 3 3 2   -0.8993155496E+00
 3 3 3    0.4825619727E+00
 
   25
  0.000  0.000  0.000
  0.000  2.764 -2.764
 1 1 2
 1 1 1   -0.1643256534E-01
 1 1 2   -0.2131320145E+00
 1 1 3   -0.9087823975E-01
 1 2 1   -0.1569233929E+00
 1 2 2    0.1626684961E-01
 1 2 3   -0.6829385066E-01
 1 3 1   -0.9026682272E-02
 1 3 2    0.2118022567E+00
 1 3 3    0.9026682272E-02
 2 1 1   -0.1569233929E+00
 2 1 2    0.1626684961E-01
 2 1 3   -0.6829385066E-01
 2 2 1   -0.8174659795E-02
 2 2 2    0.8245541877E-01
 2 2 3    0.8174659795E-02
 2 3 1   -0.6829385066E-01
 2 3 2   -0.1626684961E-01
 2 3 3   -0.1569233929E+00
 3 1 1   -0.9026682272E-02
 3 1 2    0.2118022567E+00
 3 1 3    0.9026682272E-02
 3 2 1   -0.6829385066E-01
 3 2 2   -0.1626684961E-01
 3 2 3   -0.1569233929E+00
 3 3 1    0.9087823975E-01
 3 3 2   -0.2131320145E+00
 3 3 3    0.1643256534E-01
 
   26
  0.000  0.000  0.000
  0.000  0.000 -5.529
 1 1 2
 1 1 1   -0.1643256534E-01
 1 1 2    0.9087823975E-01
 1 1 3    0.2131320145E+00
 1 2 1    0.9026682272E-02
 1 2 2    0.9026682272E-02
 1 2 3    0.2118022567E+00
 1 3 1    0.1569233929E+00
 1 3 2   -0.6829385066E-01
 1 3 3    0.1626684961E-01
 2 1 1    0.9026682272E-02
 2 1 2    0.9026682272E-02
 2 1 3    0.2118022567E+00
 2 2 1    0.9087823975E-01
 2 2 2   -0.1643256534E-01
 2 2 3    0.2131320145E+00
 2 3 1   -0.6829385066E-01
 2 3 2    0.1569233929E+00
 2 3 3    0.1626684961E-01
 3 1 1    0.1569233929E+00
 3 1 2   -0.6829385066E-01
 3 1 3    0.1626684961E-01
 3 2 1   -0.6829385066E-01
 3 2 2    0.1569233929E+00
 3 2 3    0.1626684961E-01
 3 3 1   -0.8174659795E-02
 3 3 2   -0.8174659795E-02
 3 3 3   -0.8245541877E-01
 
   27
  0.000  0.000  0.000
 -5.529 -2.764  2.764
 1 1 3
 1 1 1   -0.1813653145E+00
 1 1 2    0.7335204185E-01
 1 1 3   -0.7335204185E-01
 1 2 1   -0.2273795473E+00
 1 2 2    0.2435900905E+00
 1 2 3   -0.3532665280E-01
 1 3 1    0.2273795473E+00
 1 3 2   -0.3532665280E-01
 1 3 3    0.2435900905E+00
 2 1 1   -0.2273795473E+00
 2 1 2    0.2435900905E+00
 2 1 3   -0.3532665280E-01
 2 2 1    0.6450436095E-01
 2 2 2    0.1125611122E+00
 2 2 3    0.6399106928E-01
 2 3 1    0.1117718578E+00
 2 3 2   -0.1029119451E+00
 2 3 3    0.1029119451E+00
 3 1 1    0.2273795473E+00
 3 1 2   -0.3532665280E-01
 3 1 3    0.2435900905E+00
 3 2 1    0.1117718578E+00
 3 2 2   -0.1029119451E+00
 3 2 3    0.1029119451E+00
 3 3 1    0.6450436095E-01
 3 3 2   -0.6399106928E-01
 3 3 3   -0.1125611122E+00
 
   28
  0.000  0.000  0.000
 -2.764 -5.529  2.764
 1 1 3
 1 1 1    0.1125611122E+00
 1 1 2    0.6450436095E-01
 1 1 3    0.6399106928E-01
 1 2 1    0.2435900905E+00
 1 2 2   -0.2273795473E+00
 1 2 3   -0.3532665280E-01
 1 3 1   -0.1029119451E+00
 1 3 2    0.1117718578E+00
 1 3 3    0.1029119451E+00
 2 1 1    0.2435900905E+00
 2 1 2   -0.2273795473E+00
 2 1 3   -0.3532665280E-01
 2 2 1    0.7335204185E-01
 2 2 2   -0.1813653145E+00
 2 2 3   -0.7335204185E-01
 2 3 1   -0.3532665280E-01
 2 3 2    0.2273795473E+00
 2 3 3    0.2435900905E+00
 3 1 1   -0.1029119451E+00
 3 1 2    0.1117718578E+00
 3 1 3    0.1029119451E+00
 3 2 1   -0.3532665280E-01
 3 2 2    0.2273795473E+00
 3 2 3    0.2435900905E+00
 3 3 1   -0.6399106928E-01
 3 3 2    0.6450436095E-01
 3 3 3   -0.1125611122E+00
 
   29
  0.000  0.000  0.000
 -2.764 -2.764  5.529
 1 1 3
 1 1 1    0.1125611122E+00
 1 1 2   -0.6399106928E-01
 1 1 3   -0.6450436095E-01
 1 2 1    0.1029119451E+00
 1 2 2    0.1029119451E+00
 1 2 3    0.1117718578E+00
 1 3 1   -0.2435900905E+00
 1 3 2   -0.3532665280E-01
 1 3 3   -0.2273795473E+00
 2 1 1    0.1029119451E+00
 2 1 2    0.1029119451E+00
 2 1 3    0.1117718578E+00
 2 2 1   -0.6399106928E-01
 2 2 2    0.1125611122E+00
 2 2 3   -0.6450436095E-01
 2 3 1   -0.3532665280E-01
 2 3 2   -0.2435900905E+00
 2 3 3   -0.2273795473E+00
 3 1 1   -0.2435900905E+00
 3 1 2   -0.3532665280E-01
 3 1 3   -0.2273795473E+00
 3 2 1   -0.3532665280E-01
 3 2 2   -0.2435900905E+00
 3 2 3   -0.2273795473E+00
 3 3 1    0.7335204185E-01
 3 3 2    0.7335204185E-01
 3 3 3    0.1813653145E+00
 
   30
  0.000  0.000  0.000
 -2.764 -2.764  0.000
 1 1 1
 1 1 1    0.4825619727E+00
 1 1 2    0.8993155496E+00
 1 1 3    0.4135166340E+00
 1 2 1    0.9358671970E+00
 1 2 2    0.9358671970E+00
 1 2 3   -0.2628099796E+00
 1 3 1    0.8070444300E-01
 1 3 2    0.1731615891E-01
 1 3 3   -0.5962845070E+00
 2 1 1    0.9358671970E+00
 2 1 2    0.9358671970E+00
 2 1 3   -0.2628099796E+00
 2 2 1    0.8993155496E+00
 2 2 2    0.4825619727E+00
 2 2 3    0.4135166340E+00
 2 3 1    0.1731615891E-01
 2 3 2    0.8070444300E-01
 2 3 3   -0.5962845070E+00
 3 1 1    0.8070444300E-01
 3 1 2    0.1731615891E-01
 3 1 3   -0.5962845070E+00
 3 2 1    0.1731615891E-01
 3 2 2    0.8070444300E-01
 3 2 3   -0.5962845070E+00
 3 3 1   -0.5098595194E-01
 3 3 2   -0.5098595194E-01
 3 3 3   -0.4555570480E+00
 
   31
  0.000  0.000  0.000
 -2.764 -2.764  0.000
 1 1 2
 1 1 1    0.3885824208E+01
 1 1 2    0.3483240336E+01
 1 1 3   -0.3483240336E+01
 1 2 1    0.3066702293E+01
 1 2 2    0.3066702293E+01
 1 2 3   -0.3729290564E+01
 1 3 1   -0.3066702293E+01
 1 3 2   -0.3729290564E+01
 1 3 3    0.3066702293E+01
 2 1 1    0.3066702293E+01
 2 1 2    0.3066702293E+01
 2 1 3   -0.3729290564E+01
 2 2 1    0.3483240336E+01
 2 2 2    0.3885824208E+01
 2 2 3   -0.3483240336E+01
 2 3 1   -0.3729290564E+01
 2 3 2   -0.3066702293E+01
 2 3 3    0.3066702293E+01
 3 1 1   -0.3066702293E+01
 3 1 2   -0.3729290564E+01
 3 1 3    0.3066702293E+01
 3 2 1   -0.3729290564E+01
 3 2 2   -0.3066702293E+01
 3 2 3    0.3066702293E+01
 3 3 1    0.3483240336E+01
 3 3 2    0.3483240336E+01
 3 3 3   -0.3885824208E+01
 
   32
  0.000  0.000  0.000
 -2.764 -2.764  0.000
 1 1 3
 1 1 1    0.5851307865E+01
 1 1 2    0.3643023408E+01
 1 1 3    0.3643023408E+01
 1 2 1    0.5162425284E+01
 1 2 2    0.5162425284E+01
 1 2 3    0.4569826103E+01
 1 3 1    0.5162425284E+01
 1 3 2    0.4569826103E+01
 1 3 3    0.5162425284E+01
 2 1 1    0.5162425284E+01
 2 1 2    0.5162425284E+01
 2 1 3    0.4569826103E+01
 2 2 1    0.3643023408E+01
 2 2 2    0.5851307865E+01
 2 2 3    0.3643023408E+01
 2 3 1    0.4569826103E+01
 2 3 2    0.5162425284E+01
 2 3 3    0.5162425284E+01
 3 1 1    0.5162425284E+01
 3 1 2    0.4569826103E+01
 3 1 3    0.5162425284E+01
 3 2 1    0.4569826103E+01
 3 2 2    0.5162425284E+01
 3 2 3    0.5162425284E+01
 3 3 1    0.3643023408E+01
 3 3 2    0.3643023408E+01
 3 3 3    0.5851307865E+01
 
   33
  0.000  0.000  0.000
 -2.764  0.000  2.764
 1 1 1
 1 1 1    0.4825619727E+00
 1 1 2   -0.4135166340E+00
 1 1 3   -0.8993155496E+00
 1 2 1   -0.8070444300E-01
 1 2 2   -0.5962845070E+00
 1 2 3    0.1731615891E-01
 1 3 1   -0.9358671970E+00
 1 3 2   -0.2628099796E+00
 1 3 3    0.9358671970E+00
 2 1 1   -0.8070444300E-01
 2 1 2   -0.5962845070E+00
 2 1 3    0.1731615891E-01
 2 2 1   -0.5098595194E-01
 2 2 2    0.4555570480E+00
 2 2 3    0.5098595194E-01
 2 3 1    0.1731615891E-01
 2 3 2    0.5962845070E+00
 2 3 3   -0.8070444300E-01
 3 1 1   -0.9358671970E+00
 3 1 2   -0.2628099796E+00
 3 1 3    0.9358671970E+00
 3 2 1    0.1731615891E-01
 3 2 2    0.5962845070E+00
 3 2 3   -0.8070444300E-01
 3 3 1    0.8993155496E+00
 3 3 2   -0.4135166340E+00
 3 3 3   -0.4825619727E+00
 
   34
  0.000  0.000  0.000
 -2.764  0.000  2.764
 1 1 2
 1 1 1    0.1643256534E-01
 1 1 2    0.9087823975E-01
 1 1 3   -0.2131320145E+00
 1 2 1    0.9026682272E-02
 1 2 2   -0.9026682272E-02
 1 2 3    0.2118022567E+00
 1 3 1   -0.1569233929E+00
 1 3 2   -0.6829385066E-01
 1 3 3   -0.1626684961E-01
 2 1 1    0.9026682272E-02
 2 1 2   -0.9026682272E-02
 2 1 3    0.2118022567E+00
 2 2 1   -0.9087823975E-01
 2 2 2   -0.1643256534E-01
 2 2 3   -0.2131320145E+00
 2 3 1   -0.6829385066E-01
 2 3 2   -0.1569233929E+00
 2 3 3    0.1626684961E-01
 3 1 1   -0.1569233929E+00
 3 1 2   -0.6829385066E-01
 3 1 3   -0.1626684961E-01
 3 2 1   -0.6829385066E-01
 3 2 2   -0.1569233929E+00
 3 2 3    0.1626684961E-01
 3 3 1    0.8174659795E-02
 3 3 2   -0.8174659795E-02
 3 3 3    0.8245541877E-01
 
   35
  0.000  0.000  0.000
 -2.764  0.000  2.764
 1 1 3
 1 1 1    0.5851307865E+01
 1 1 2   -0.3643023408E+01
 1 1 3   -0.3643023408E+01
 1 2 1   -0.5162425284E+01
 1 2 2    0.5162425284E+01
 1 2 3    0.4569826103E+01
 1 3 1   -0.5162425284E+01
 1 3 2    0.4569826103E+01
 1 3 3    0.5162425284E+01
 2 1 1   -0.5162425284E+01
 2 1 2    0.5162425284E+01
 2 1 3    0.4569826103E+01
 2 2 1    0.3643023408E+01
 2 2 2   -0.5851307865E+01
 2 2 3   -0.3643023408E+01
 2 3 1    0.4569826103E+01
 2 3 2   -0.5162425284E+01
 2 3 3   -0.5162425284E+01
 3 1 1   -0.5162425284E+01
 3 1 2    0.4569826103E+01
 3 1 3    0.5162425284E+01
 3 2 1    0.4569826103E+01
 3 2 2   -0.5162425284E+01
 3 2 3   -0.5162425284E+01
 3 3 1    0.3643023408E+01
 3 3 2   -0.3643023408E+01
 3 3 3   -0.5851307865E+01
 
   36
  0.000  0.000  0.000
 -2.764 -5.529 -2.764
 1 1 2
 1 1 1    0.1643256534E-01
 1 1 2    0.2131320145E+00
 1 1 3   -0.9087823975E-01
 1 2 1    0.1569233929E+00
 1 2 2   -0.1626684961E-01
 1 2 3   -0.6829385066E-01
 1 3 1   -0.9026682272E-02
 1 3 2    0.2118022567E+00
 1 3 3   -0.9026682272E-02
 2 1 1    0.1569233929E+00
 2 1 2   -0.1626684961E-01
 2 1 3   -0.6829385066E-01
 2 2 1    0.8174659795E-02
 2 2 2   -0.8245541877E-01
 2 2 3    0.8174659795E-02
 2 3 1   -0.6829385066E-01
 2 3 2   -0.1626684961E-01
 2 3 3    0.1569233929E+00
 3 1 1   -0.9026682272E-02
 3 1 2    0.2118022567E+00
 3 1 3   -0.9026682272E-02
 3 2 1   -0.6829385066E-01
 3 2 2   -0.1626684961E-01
 3 2 3    0.1569233929E+00
 3 3 1   -0.9087823975E-01
 3 3 2    0.2131320145E+00
 3 3 3    0.1643256534E-01
 
   37
  0.000  0.000  0.000
  0.000 -2.764  2.764
 1 1 1
 1 1 1    0.4555570480E+00
 1 1 2   -0.5098595194E-01
 1 1 3    0.5098595194E-01
 1 2 1   -0.5962845070E+00
 1 2 2   -0.8070444300E-01
 1 2 3    0.1731615891E-01
 1 3 1    0.5962845070E+00
 1 3 2    0.1731615891E-01
 1 3 3   -0.8070444300E-01
 2 1 1   -0.5962845070E+00
 2 1 2   -0.8070444300E-01
 2 1 3    0.1731615891E-01
 2 2 1   -0.4135166340E+00
 2 2 2    0.4825619727E+00
 2 2 3   -0.8993155496E+00
 2 3 1   -0.2628099796E+00
 2 3 2   -0.9358671970E+00
 2 3 3    0.9358671970E+00
 3 1 1    0.5962845070E+00
 3 1 2    0.1731615891E-01
 3 1 3   -0.8070444300E-01
 3 2 1   -0.2628099796E+00
 3 2 2   -0.9358671970E+00
 3 2 3    0.9358671970E+00
 3 3 1   -0.4135166340E+00
 3 3 2    0.8993155496E+00
 3 3 3   -0.4825619727E+00
 
   38
  0.000  0.000  0.000
  0.000 -2.764  2.764
 1 1 2
 1 1 1   -0.1643256534E-01
 1 1 2   -0.9087823975E-01
 1 1 3   -0.2131320145E+00
 1 2 1   -0.9026682272E-02
 1 2 2    0.9026682272E-02
 1 2 3    0.2118022567E+00
 1 3 1   -0.1569233929E+00
 1 3 2   -0.6829385066E-01
 1 3 3    0.1626684961E-01
 2 1 1   -0.9026682272E-02
 2 1 2    0.9026682272E-02
 2 1 3    0.2118022567E+00
 2 2 1    0.9087823975E-01
 2 2 2    0.1643256534E-01
 2 2 3   -0.2131320145E+00
 2 3 1   -0.6829385066E-01
 2 3 2   -0.1569233929E+00
 2 3 3   -0.1626684961E-01
 3 1 1   -0.1569233929E+00
 3 1 2   -0.6829385066E-01
 3 1 3    0.1626684961E-01
 3 2 1   -0.6829385066E-01
 3 2 2   -0.1569233929E+00
 3 2 3   -0.1626684961E-01
 3 3 1   -0.8174659795E-02
 3 3 2    0.8174659795E-02
 3 3 3    0.8245541877E-01
 
   39
  0.000  0.000  0.000