   0.48528E+00   0.50464E-04   0.32361E-04
   0.97056E+00   0.20888E-03   0.13384E-03
   0.14558E+01   0.64494E-03   0.41298E-03
   0.19411E+01   0.16244E-02   0.10394E-02
   0.24264E+01   0.34324E-02   0.21935E-02
   0.29117E+01   0.50316E-02   0.32064E-02
   0.33970E+01   0.57854E-02   0.36648E-02
   0.38822E+01   0.67657E-02   0.42528E-02
   0.43675E+01   0.84018E-02   0.52182E-02
   0.48528E+01   0.13226E-01   0.81054E-02
   0.53381E+01   0.19761E-01   0.12006E-01
   0.58233E+01   0.24471E-01   0.14741E-01
   0.63086E+01   0.30390E-01   0.17988E-01
   0.67939E+01   0.43685E-01   0.25328E-01
   0.72792E+01   0.81133E-01   0.46056E-01
   0.77645E+01   0.11011E+00   0.60972E-01
   0.82497E+01   0.15121E+00   0.81963E-01
   0.87350E+01   0.21407E+00   0.11193E+00
   0.92203E+01   0.34197E+00   0.16721E+00
   0.97056E+01   0.29006E+00   0.13722E+00
   0.10191E+02   0.24438E+00   0.11271E+00
   0.10676E+02   0.18611E+00   0.83454E-01
   0.11161E+02   0.18573E+00   0.80177E-01
   0.11647E+02   0.13398E+00   0.58645E-01
   0.12132E+02   0.12185E+00   0.53201E-01
   0.12617E+02   0.12729E+00   0.54407E-01
   0.13103E+02   0.16109E+00   0.66280E-01
   0.13588E+02   0.15495E+00   0.62559E-01
   0.14073E+02   0.65367E-01   0.28165E-01
   0.14558E+02   0.13323E-01   0.68344E-02
   0.15044E+02   0.81825E-02   0.47920E-02
   0.15529E+02   0.85758E-02   0.50096E-02
   0.16014E+02   0.90607E-02   0.52399E-02
   0.16499E+02   0.97093E-02   0.55461E-02
   0.16985E+02   0.10585E-01   0.59627E-02
   0.17470E+02   0.11732E-01   0.65118E-02
   0.17955E+02   0.13244E-01   0.72424E-02
   0.18441E+02   0.14918E-01   0.80492E-02
   0.18926E+02   0.16265E-01   0.86624E-02
   0.19411E+02   0.17210E-01   0.90226E-02
   0.19896E+02   0.18437E-01   0.94664E-02
   0.20382E+02   0.20554E-01   0.10294E-01
   0.20867E+02   0.23455E-01   0.11446E-01
   0.21352E+02   0.26372E-01   0.12564E-01
   0.21838E+02   0.28755E-01   0.13381E-01
   0.22323E+02   0.31357E-01   0.14172E-01
   0.22808E+02   0.34879E-01   0.15170E-01
   0.23293E+02   0.39977E-01   0.16579E-01
   0.23779E+02   0.46977E-01   0.18586E-01
   0.24264E+02   0.52897E-01   0.20052E-01
   0.24749E+02   0.59080E-01   0.21180E-01
   0.25235E+02   0.70441E-01   0.23118E-01
   0.25720E+02   0.95482E-01   0.27971E-01
   0.26205E+02   0.13984E+00   0.36850E-01
   0.26690E+02   0.14090E+00   0.33510E-01
   0.27176E+02   0.12896E+00   0.26033E-01
   0.27661E+02   0.10616E+00   0.18814E-01
   0.28146E+02   0.85119E-01   0.12932E-01
   0.28631E+02   0.56783E-01   0.77785E-02
   0.29117E+02   0.46111E-01   0.54366E-02
   0.29602E+02   0.37228E-01   0.41471E-02
   0.30087E+02   0.27142E-01   0.29986E-02
   0.30573E+02   0.21783E-01   0.20335E-02
   0.31058E+02   0.19572E-01   0.14275E-02
   0.31543E+02   0.15034E-01   0.91316E-03
   0.32028E+02   0.64154E-02   0.43673E-03
   0.32514E+02   0.15439E-02   0.14889E-03
   0.32999E+02   0.31516E-03   0.37545E-04
   0.33484E+02   0.56681E-04   0.63988E-05
   0.33970E+02   0.60411E-05   0.19923E-04
   0.34455E+02   0.16927E-03   0.25634E-02
   0.34940E+02   0.22205E-02   0.36177E-01
   0.35425E+02   0.73207E-02   0.10755E+00
   0.35911E+02   0.16455E-01   0.13181E+00
   0.36396E+02   0.22542E-01   0.13812E+00
   0.36881E+02   0.31703E-01   0.14329E+00
   0.37366E+02   0.34125E-01   0.12895E+00
   0.37852E+02   0.45173E-01   0.14468E+00
   0.38337E+02   0.44054E-01   0.13052E+00
   0.38822E+02   0.36685E-01   0.99258E-01
   0.39308E+02   0.45062E-01   0.10319E+00
   0.39793E+02   0.37474E-01   0.83845E-01
   0.40278E+02   0.60677E-01   0.12141E+00
   0.40763E+02   0.66949E+00   0.12799E+01
   0.41249E+02   0.15729E-01   0.34116E-01
   0.41734E+02   0.45322E-01   0.10454E+00
   0.42219E+02   0.75344E-01   0.18260E+00
   0.42705E+02   0.19883E+00   0.48966E+00
   0.43190E+02   0.29949E+00   0.75793E+00
   0.43675E+02   0.38783E-01   0.68242E-01
   0.44160E+02   0.10001E-01   0.16314E-01
   0.44646E+02   0.00000E+00   0.00000E+00
   0.45131E+02   0.00000E+00   0.00000E+00
   0.45616E+02   0.00000E+00   0.00000E+00
   0.46102E+02   0.00000E+00   0.00000E+00
   0.46587E+02   0.00000E+00   0.00000E+00
   0.47072E+02   0.00000E+00   0.00000E+00
   0.47557E+02   0.00000E+00   0.00000E+00
   0.48043E+02   0.00000E+00   0.00000E+00
   0.48528E+02   0.00000E+00   0.00000E+00
