  81
   1   1
    18.275396051605803    -0.000000000000000     0.000000000000001
    -0.000000000000000    18.275396051605806     0.000000000000001
     0.000000000000001     0.000000000000001    18.275396051605792
   1   2
     1.087481406514031     0.204150036233234     0.204150036233234
    -0.204150036233234    -0.655985468363466    -0.712524456567301
    -0.204150036233235    -0.712524456567301    -0.655985468363465
   1   3
     1.087481406514031    -0.204150036233234    -0.204150036233234
     0.204150036233234    -0.655985468363465    -0.712524456567301
     0.204150036233235    -0.712524456567301    -0.655985468363465
   1   4
    -0.655985468363465    -0.204150036233235    -0.712524456567301
     0.204150036233234     1.087481406514031     0.204150036233234
    -0.712524456567301    -0.204150036233234    -0.655985468363465
   1   5
    -0.188818226033131     0.101694329503296    -0.101694329503296
     0.101694329503296    -0.188818226033131    -0.101694329503296
    -0.101694329503296    -0.101694329503296    -0.188818226033130
   1   6
    -0.655985468363465     0.712524456567301     0.204150036233235
     0.712524456567301    -0.655985468363465    -0.204150036233234
    -0.204150036233235     0.204150036233234     1.087481406514031
   1   7
    -0.655985468363465     0.204150036233235    -0.712524456567301
    -0.204150036233234     1.087481406514032    -0.204150036233235
    -0.712524456567301     0.204150036233235    -0.655985468363465
   1   8
    -0.655985468363465     0.712524456567301    -0.204150036233234
     0.712524456567301    -0.655985468363465     0.204150036233235
     0.204150036233234    -0.204150036233235     1.087481406514031
   1   9
    -0.188818226033131     0.101694329503296    -0.101694329503296
     0.101694329503296    -0.188818226033131    -0.101694329503296
    -0.101694329503296    -0.101694329503296    -0.188818226033130
   1  10
    -0.655985468363465    -0.712524456567301    -0.204150036233234
    -0.712524456567301    -0.655985468363465    -0.204150036233234
     0.204150036233234     0.204150036233234     1.087481406514031
   1  11
    -0.188818226033130    -0.101694329503296     0.101694329503296
    -0.101694329503296    -0.188818226033131    -0.101694329503296
     0.101694329503296    -0.101694329503296    -0.188818226033130
   1  12
    -0.655985468363465     0.204150036233234     0.712524456567301
    -0.204150036233234     1.087481406514031     0.204150036233234
     0.712524456567301    -0.204150036233235    -0.655985468363465
   1  13
    -0.188818226033131    -0.101694329503296    -0.101694329503296
    -0.101694329503296    -0.188818226033130     0.101694329503296
    -0.101694329503296     0.101694329503296    -0.188818226033130
   1  14
    -0.188818226033130     0.101694329503296     0.101694329503296
     0.101694329503296    -0.188818226033131     0.101694329503296
     0.101694329503296     0.101694329503296    -0.188818226033130
   1  15
    -0.226589572187077     0.000000000000000    -0.000000000000000
    -0.000000000000000     0.120057506474347    -0.000000000000000
    -0.000000000000000    -0.000000000000000     0.120057506474347
   1  16
     1.087481406514031    -0.204150036233234     0.204150036233234
     0.204150036233234    -0.655985468363465     0.712524456567301
    -0.204150036233235     0.712524456567301    -0.655985468363465
   1  17
     0.120057506474347    -0.000000000000000    -0.000000000000000
    -0.000000000000000    -0.226589572187077     0.000000000000000
    -0.000000000000000     0.000000000000000     0.120057506474347
   1  18
     0.120057506474347     0.000000000000000    -0.000000000000000
     0.000000000000000     0.120057506474347    -0.000000000000000
     0.000000000000000     0.000000000000000    -0.226589572187077
   1  19
    -0.655985468363465    -0.712524456567301     0.204150036233235
    -0.712524456567301    -0.655985468363465     0.204150036233235
    -0.204150036233234    -0.204150036233234     1.087481406514031
   1  20
    -0.655985468363465    -0.204150036233234     0.712524456567301
     0.204150036233234     1.087481406514032    -0.204150036233234
     0.712524456567301     0.204150036233235    -0.655985468363465
   1  21
    -0.188818226033130    -0.101694329503296     0.101694329503296
    -0.101694329503296    -0.188818226033131    -0.101694329503296
     0.101694329503296    -0.101694329503296    -0.188818226033131
   1  22
     1.087481406514032     0.204150036233234    -0.204150036233234
    -0.204150036233234    -0.655985468363465     0.712524456567301
     0.204150036233235     0.712524456567301    -0.655985468363465
   1  23
     0.120057506474347    -0.000000000000000    -0.000000000000000
     0.000000000000000     0.120057506474347    -0.000000000000000
     0.000000000000000    -0.000000000000000    -0.226589572187077
   1  24
     0.120057506474347     0.000000000000000     0.000000000000000
     0.000000000000000    -0.226589572187077    -0.000000000000000
    -0.000000000000000    -0.000000000000000     0.120057506474347
   1  25
    -0.188818226033131    -0.101694329503296    -0.101694329503296
    -0.101694329503296    -0.188818226033130     0.101694329503296
    -0.101694329503296     0.101694329503296    -0.188818226033130
   1  26
    -0.226589572187077     0.000000000000000    -0.000000000000000
     0.000000000000000     0.120057506474347     0.000000000000000
    -0.000000000000000    -0.000000000000000     0.120057506474347
   1  27
    -0.188818226033130     0.101694329503296     0.101694329503296
     0.101694329503296    -0.188818226033131     0.101694329503296
     0.101694329503296     0.101694329503296    -0.188818226033130
   1  28
    -2.376665862136078    -2.131979801509327    -2.131979801509326
    -2.131979801509327    -2.376665862136079    -2.131979801509327
    -2.131979801509327    -2.131979801509327    -2.376665862136077
   1  29
    -0.082134762777331    -0.000000000000000    -0.000000000000000
     0.000000000000000     0.062618303836234     0.102952626020417
    -0.000000000000000     0.102952626020417     0.062618303836234
   1  30
    -2.376665862136078     2.131979801509327     2.131979801509327
     2.131979801509327    -2.376665862136079    -2.131979801509327
     2.131979801509327    -2.131979801509328    -2.376665862136078
   1  31
     0.062618303836234    -0.000000000000000     0.102952626020417
     0.000000000000000    -0.082134762777331    -0.000000000000000
     0.102952626020417     0.000000000000000     0.062618303836234
   1  32
     0.062618303836234    -0.102952626020417    -0.000000000000000
    -0.102952626020417     0.062618303836234    -0.000000000000000
     0.000000000000000    -0.000000000000000    -0.082134762777331
   1  33
     0.155988041981316     0.074912041447422    -0.074912041447422
    -0.122281301495804    -0.093128240292786     0.065691192244054
     0.122281301495804     0.065691192244054    -0.093128240292786
   1  34
    -2.376665862136078     2.131979801509328    -2.131979801509326
     2.131979801509327    -2.376665862136078     2.131979801509326
    -2.131979801509328     2.131979801509327    -2.376665862136078
   1  35
    -0.093128240292786    -0.122281301495804     0.065691192244054
     0.074912041447422     0.155988041981316    -0.074912041447422
     0.065691192244054     0.122281301495804    -0.093128240292786
   1  36
    -0.093128240292786    -0.065691192244054     0.122281301495804
    -0.065691192244054    -0.093128240292786     0.122281301495804
    -0.074912041447422    -0.074912041447422     0.155988041981316
   1  37
     0.062618303836234     0.102952626020417    -0.000000000000000
     0.102952626020417     0.062618303836234    -0.000000000000000
    -0.000000000000000    -0.000000000000000    -0.082134762777331
   1  38
     0.062618303836234     0.000000000000000    -0.102952626020417
    -0.000000000000000    -0.082134762777331    -0.000000000000000
    -0.102952626020417    -0.000000000000000     0.062618303836234
   1  39
     0.155988041981316    -0.074912041447422     0.074912041447422
     0.122281301495804    -0.093128240292786     0.065691192244054
    -0.122281301495804     0.065691192244054    -0.093128240292786
   1  40
    -0.082134762777331     0.000000000000000    -0.000000000000000
    -0.000000000000000     0.062618303836234    -0.102952626020417
     0.000000000000000    -0.102952626020417     0.062618303836234
   1  41
     0.042079857046585    -0.028520091358988    -0.028520091358988
    -0.028520091358988     0.042079857046585    -0.028520091358988
    -0.028520091358988    -0.028520091358988     0.042079857046585
   1  42
     0.042079857046585     0.028520091358988     0.028520091358987
     0.028520091358988     0.042079857046585    -0.028520091358988
     0.028520091358988    -0.028520091358988     0.042079857046585
   1  43
    -0.093128240292786     0.122281301495804     0.065691192244054
    -0.074912041447422     0.155988041981316     0.074912041447422
     0.065691192244054    -0.122281301495804    -0.093128240292786
   1  44
     0.042079857046585     0.028520091358988    -0.028520091358988
     0.028520091358988     0.042079857046585     0.028520091358988
    -0.028520091358988     0.028520091358988     0.042079857046585
   1  45
    -0.093128240292786    -0.065691192244054    -0.122281301495804
    -0.065691192244054    -0.093128240292786    -0.122281301495804
     0.074912041447422     0.074912041447422     0.155988041981316
   1  46
    -2.376665862136079    -2.131979801509327     2.131979801509327
    -2.131979801509327    -2.376665862136079     2.131979801509327
     2.131979801509327     2.131979801509328    -2.376665862136079
   1  47
    -0.093128240292786     0.065691192244054    -0.122281301495804
     0.065691192244054    -0.093128240292786     0.122281301495804
     0.074912041447422    -0.074912041447422     0.155988041981316
   1  48
    -0.093128240292786     0.122281301495804    -0.065691192244054
    -0.074912041447422     0.155988041981316    -0.074912041447422
    -0.065691192244054     0.122281301495804    -0.093128240292786
   1  49
    -0.093128240292786     0.065691192244054     0.122281301495804
     0.065691192244054    -0.093128240292786    -0.122281301495804
    -0.074912041447422     0.074912041447422     0.155988041981316
   1  50
     0.042079857046585    -0.028520091358988     0.028520091358987
    -0.028520091358988     0.042079857046585     0.028520091358988
     0.028520091358988     0.028520091358988     0.042079857046585
   1  51
    -0.093128240292786    -0.122281301495804    -0.065691192244054
     0.074912041447422     0.155988041981316     0.074912041447422
    -0.065691192244054    -0.122281301495804    -0.093128240292786
   1  52
     0.155988041981316    -0.074912041447422    -0.074912041447422
     0.122281301495804    -0.093128240292786    -0.065691192244054
     0.122281301495804    -0.065691192244054    -0.093128240292786
   1  53
     0.155988041981316     0.074912041447422     0.074912041447422
    -0.122281301495804    -0.093128240292786    -0.065691192244054
    -0.122281301495804    -0.065691192244054    -0.093128240292786
   1  54
     0.055958241840933    -0.000000000000000    -0.000000000000000
     0.000000000000000     0.055958241840933     0.000000000000000
    -0.000000000000000     0.000000000000000     0.055958241840933
   1  55
     0.011168858701282    -0.000000000000000    -0.000000000000000
     0.000000000000000     0.011168858701282    -0.000000000000000
    -0.000000000000000    -0.000000000000000     0.011168858701282
   1  56
     0.306863413700661     0.004571180175328     0.004571180175328
    -0.171774003208089    -0.055973758599505     0.060860592268378
    -0.171774003208089     0.060860592268378    -0.055973758599505
   1  57
     0.306863413700661    -0.004571180175328    -0.004571180175328
     0.171774003208089    -0.055973758599505     0.060860592268378
     0.171774003208089     0.060860592268378    -0.055973758599505
   1  58
    -0.055973758599505    -0.171774003208089     0.060860592268378
     0.004571180175328     0.306863413700661     0.004571180175328
     0.060860592268378    -0.171774003208089    -0.055973758599505
   1  59
     0.031150635677442    -0.043076591556494     0.043076591556494
    -0.043076591556494     0.031150635677442     0.043076591556494
     0.043076591556494     0.043076591556494     0.031150635677442
   1  60
    -0.055973758599505    -0.060860592268378     0.171774003208089
    -0.060860592268378    -0.055973758599505    -0.171774003208089
    -0.004571180175328     0.004571180175328     0.306863413700661
   1  61
    -0.055973758599505     0.171774003208089     0.060860592268378
    -0.004571180175328     0.306863413700661    -0.004571180175328
     0.060860592268378     0.171774003208089    -0.055973758599505
   1  62
    -0.055973758599505    -0.060860592268378    -0.171774003208089
    -0.060860592268378    -0.055973758599505     0.171774003208089
     0.004571180175328    -0.004571180175328     0.306863413700661
   1  63
    -2.174784049862623    -0.459923021745427     0.459923021745426
    -0.459923021745426    -2.174784049862624     0.459923021745426
     0.459923021745426     0.459923021745427    -2.174784049862622
   1  64
    -0.055973758599505     0.060860592268378    -0.171774003208089
     0.060860592268378    -0.055973758599505    -0.171774003208089
     0.004571180175328     0.004571180175328     0.306863413700661
   1  65
     0.031150635677442     0.043076591556494    -0.043076591556494
     0.043076591556494     0.031150635677442     0.043076591556494
    -0.043076591556494     0.043076591556494     0.031150635677442
   1  66
    -0.055973758599505     0.171774003208089    -0.060860592268378
    -0.004571180175328     0.306863413700661     0.004571180175328
    -0.060860592268378    -0.171774003208089    -0.055973758599505
   1  67
     0.031150635677442     0.043076591556494     0.043076591556494
     0.043076591556494     0.031150635677442    -0.043076591556494
     0.043076591556494    -0.043076591556494     0.031150635677442
   1  68
     0.031150635677442    -0.043076591556494    -0.043076591556494
    -0.043076591556494     0.031150635677442    -0.043076591556494
    -0.043076591556494    -0.043076591556494     0.031150635677442
   1  69
     0.071820235750777    -0.000000000000000    -0.000000000000000
    -0.000000000000000     0.265847861634631    -0.299936665356412
    -0.000000000000000    -0.299936665356412     0.265847861634631
   1  70
     0.306863413700661    -0.004571180175328     0.004571180175328
     0.171774003208089    -0.055973758599505    -0.060860592268378
    -0.171774003208089    -0.060860592268378    -0.055973758599505
   1  71
     0.265847861634631     0.000000000000000    -0.299936665356412
    -0.000000000000000     0.071820235750777     0.000000000000000
    -0.299936665356412     0.000000000000000     0.265847861634630
   1  72
     0.265847861634630     0.299936665356412    -0.000000000000000
     0.299936665356412     0.265847861634631     0.000000000000000
    -0.000000000000000    -0.000000000000000     0.071820235750777
   1  73
    -0.055973758599505     0.060860592268378     0.171774003208089
     0.060860592268378    -0.055973758599505     0.171774003208089
    -0.004571180175328    -0.004571180175328     0.306863413700661
   1  74
    -0.055973758599505    -0.171774003208089    -0.060860592268378
     0.004571180175328     0.306863413700661    -0.004571180175328
    -0.060860592268378     0.171774003208089    -0.055973758599505
   1  75
    -2.174784049862624     0.459923021745427    -0.459923021745426
     0.459923021745427    -2.174784049862623     0.459923021745426
    -0.459923021745426     0.459923021745427    -2.174784049862623
   1  76
     0.306863413700661     0.004571180175328    -0.004571180175328
    -0.171774003208089    -0.055973758599505    -0.060860592268378
     0.171774003208089    -0.060860592268378    -0.055973758599505
   1  77
     0.265847861634630    -0.299936665356412    -0.000000000000000
    -0.299936665356412     0.265847861634631     0.000000000000000
     0.000000000000000     0.000000000000000     0.071820235750777
   1  78
     0.265847861634630    -0.000000000000000     0.299936665356412
     0.000000000000000     0.071820235750777     0.000000000000000
     0.299936665356412    -0.000000000000000     0.265847861634631
   1  79
    -2.174784049862624     0.459923021745427     0.459923021745426
     0.459923021745426    -2.174784049862625    -0.459923021745427
     0.459923021745426    -0.459923021745427    -2.174784049862622
   1  80
     0.071820235750777    -0.000000000000000    -0.000000000000000
     0.000000000000000     0.265847861634631     0.299936665356412
    -0.000000000000000     0.299936665356412     0.265847861634630
   1  81
    -2.174784049862623    -0.459923021745426    -0.459923021745426
    -0.459923021745426    -2.174784049862624    -0.459923021745427
    -0.459923021745426    -0.459923021745427    -2.174784049862623
   2   1
     1.087481406514031    -0.204150036233234    -0.204150036233235
     0.204150036233234    -0.655985468363466    -0.712524456567301
     0.204150036233234    -0.712524456567301    -0.655985468363465
   2   2
    18.275396051605792    -0.000000000000001    -0.000000000000001
    -0.000000000000001    18.275396051605806    -0.000000000000000
    -0.000000000000001    -0.000000000000000    18.275396051605803
   2   3
     1.087481406514031     0.204150036233235     0.204150036233234
    -0.204150036233235    -0.655985468363466    -0.712524456567301
    -0.204150036233234    -0.712524456567301    -0.655985468363465
   2   4
    -0.655985468363465     0.712524456567301     0.204150036233234
     0.712524456567301    -0.655985468363465    -0.204150036233234
    -0.204150036233234     0.204150036233234     1.087481406514031
   2   5
    -0.655985468363466    -0.204150036233235    -0.712524456567301
     0.204150036233235     1.087481406514031     0.204150036233234
    -0.712524456567301    -0.204150036233234    -0.655985468363465
   2   6
    -0.188818226033130     0.101694329503296    -0.101694329503296
     0.101694329503296    -0.188818226033131    -0.101694329503296
    -0.101694329503296    -0.101694329503296    -0.188818226033130
   2   7
    -0.188818226033131     0.101694329503296    -0.101694329503296
     0.101694329503296    -0.188818226033130    -0.101694329503296
    -0.101694329503296    -0.101694329503296    -0.188818226033131
   2   8
    -0.655985468363465     0.204150036233234    -0.712524456567301
    -0.204150036233234     1.087481406514031    -0.204150036233234
    -0.712524456567301     0.204150036233234    -0.655985468363465
   2   9
    -0.655985468363465     0.712524456567301    -0.204150036233234
     0.712524456567301    -0.655985468363466     0.204150036233235
     0.204150036233234    -0.204150036233235     1.087481406514031
   2  10
    -0.655985468363465     0.204150036233234     0.712524456567301
    -0.204150036233234     1.087481406514031     0.204150036233234
     0.712524456567301    -0.204150036233234    -0.655985468363465
   2  11
    -0.655985468363465    -0.712524456567301    -0.204150036233234
    -0.712524456567301    -0.655985468363465    -0.204150036233234
     0.204150036233235     0.204150036233235     1.087481406514031
   2  12
    -0.188818226033130    -0.101694329503296     0.101694329503296
    -0.101694329503296    -0.188818226033131    -0.101694329503296
     0.101694329503296    -0.101694329503296    -0.188818226033131
   2  13
    -0.226589572187077     0.000000000000000     0.000000000000000
     0.000000000000000     0.120057506474347    -0.000000000000000
     0.000000000000000     0.000000000000000     0.120057506474347
   2  14
    -0.188818226033130    -0.101694329503296    -0.101694329503296
    -0.101694329503296    -0.188818226033131     0.101694329503296
    -0.101694329503296     0.101694329503296    -0.188818226033131
   2  15
    -0.188818226033130     0.101694329503296     0.101694329503296
     0.101694329503296    -0.188818226033131     0.101694329503296
     0.101694329503296     0.101694329503296    -0.188818226033130
   2  16
     0.120057506474347     0.000000000000000     0.000000000000000
    -0.000000000000000     0.120057506474347     0.000000000000000
     0.000000000000000     0.000000000000000    -0.226589572187077
   2  17
     1.087481406514031    -0.204150036233234     0.204150036233235
     0.204150036233234    -0.655985468363465     0.712524456567301
    -0.204150036233234     0.712524456567301    -0.655985468363465
   2  18
     0.120057506474347     0.000000000000000     0.000000000000000
    -0.000000000000000    -0.226589572187077     0.000000000000000
     0.000000000000000     0.000000000000000     0.120057506474347
   2  19
    -0.188818226033130    -0.101694329503296     0.101694329503296
    -0.101694329503296    -0.188818226033131    -0.101694329503296
     0.101694329503296    -0.101694329503296    -0.188818226033130
   2  20
    -0.655985468363465    -0.712524456567301     0.204150036233235
    -0.712524456567301    -0.655985468363465     0.204150036233234
    -0.204150036233234    -0.204150036233235     1.087481406514031
   2  21
    -0.655985468363465    -0.204150036233234     0.712524456567301
     0.204150036233235     1.087481406514032    -0.204150036233234
     0.712524456567301     0.204150036233235    -0.655985468363465
   2  22
     0.120057506474347     0.000000000000000     0.000000000000000
     0.000000000000000    -0.226589572187077    -0.000000000000000
    -0.000000000000000     0.000000000000000     0.120057506474347
   2  23
     1.087481406514031     0.204150036233234    -0.204150036233234
    -0.204150036233235    -0.655985468363465     0.712524456567301
     0.204150036233235     0.712524456567301    -0.655985468363465
   2  24
     0.120057506474347     0.000000000000000     0.000000000000000
     0.000000000000000     0.120057506474347     0.000000000000000
    -0.000000000000000     0.000000000000000    -0.226589572187077
   2  25
    -0.188818226033130     0.101694329503296     0.101694329503296
     0.101694329503296    -0.188818226033131     0.101694329503296
     0.101694329503296     0.101694329503296    -0.188818226033130
   2  26
    -0.188818226033130    -0.101694329503296    -0.101694329503296
    -0.101694329503296    -0.188818226033131     0.101694329503296
    -0.101694329503296     0.101694329503296    -0.188818226033130
   2  27
    -0.226589572187076    -0.000000000000000     0.000000000000000
     0.000000000000000     0.120057506474347     0.000000000000000
     0.000000000000000     0.000000000000000     0.120057506474347
   2  28
    -2.376665862136077     2.131979801509328     2.131979801509327
     2.131979801509327    -2.376665862136078    -2.131979801509327
     2.131979801509327    -2.131979801509327    -2.376665862136078
   2  29
    -2.376665862136078    -2.131979801509327    -2.131979801509327
    -2.131979801509327    -2.376665862136079    -2.131979801509327
    -2.131979801509327    -2.131979801509327    -2.376665862136078
   2  30
    -0.082134762777331     0.000000000000000     0.000000000000000
     0.000000000000000     0.062618303836234     0.102952626020417
     0.000000000000000     0.102952626020417     0.062618303836234
   2  31
     0.155988041981316     0.074912041447422    -0.074912041447422
    -0.122281301495804    -0.093128240292786     0.065691192244054
     0.122281301495804     0.065691192244054    -0.093128240292786
   2  32
     0.062618303836234    -0.000000000000000     0.102952626020417
    -0.000000000000000    -0.082134762777331     0.000000000000000
     0.102952626020417     0.000000000000000     0.062618303836234
   2  33
     0.062618303836234    -0.102952626020417     0.000000000000000
    -0.102952626020417     0.062618303836234     0.000000000000000
    -0.000000000000000     0.000000000000000    -0.082134762777331
   2  34
    -0.093128240292786    -0.065691192244054     0.122281301495804
    -0.065691192244054    -0.093128240292786     0.122281301495804
    -0.074912041447422    -0.074912041447422     0.155988041981316
   2  35
    -2.376665862136078     2.131979801509327    -2.131979801509327
     2.131979801509327    -2.376665862136079     2.131979801509327
    -2.131979801509327     2.131979801509327    -2.376665862136079
   2  36
    -0.093128240292786    -0.122281301495804     0.065691192244054
     0.074912041447422     0.155988041981316    -0.074912041447422
     0.065691192244054     0.122281301495804    -0.093128240292786
   2  37
     0.155988041981316    -0.074912041447422     0.074912041447422
     0.122281301495804    -0.093128240292786     0.065691192244054
    -0.122281301495804     0.065691192244054    -0.093128240292786
   2  38
     0.062618303836234     0.102952626020417     0.000000000000000
     0.102952626020417     0.062618303836234     0.000000000000000
    -0.000000000000000    -0.000000000000000    -0.082134762777331
   2  39
     0.062618303836234     0.000000000000000    -0.102952626020417
     0.000000000000000    -0.082134762777331     0.000000000000000
    -0.102952626020417     0.000000000000000     0.062618303836234
   2  40
     0.042079857046585     0.028520091358988     0.028520091358988
     0.028520091358988     0.042079857046585    -0.028520091358988
     0.028520091358988    -0.028520091358988     0.042079857046585
   2  41
    -0.082134762777331     0.000000000000000     0.000000000000000
    -0.000000000000000     0.062618303836234    -0.102952626020417
     0.000000000000000    -0.102952626020417     0.062618303836234
   2  42
     0.042079857046585    -0.028520091358988    -0.028520091358987
    -0.028520091358988     0.042079857046585    -0.028520091358988
    -0.028520091358987    -0.028520091358987     0.042079857046585
   2  43
    -0.093128240292786    -0.065691192244054    -0.122281301495804
    -0.065691192244054    -0.093128240292786    -0.122281301495804
     0.074912041447422     0.074912041447422     0.155988041981316
   2  44
    -0.093128240292786     0.122281301495804     0.065691192244054
    -0.074912041447422     0.155988041981316     0.074912041447422
     0.065691192244054    -0.122281301495804    -0.093128240292786
   2  45
     0.042079857046585     0.028520091358988    -0.028520091358987
     0.028520091358987     0.042079857046585     0.028520091358988
    -0.028520091358987     0.028520091358988     0.042079857046585
   2  46
    -0.093128240292786     0.122281301495804    -0.065691192244054
    -0.074912041447422     0.155988041981316    -0.074912041447422
    -0.065691192244054     0.122281301495804    -0.093128240292786
   2  47
    -2.376665862136079    -2.131979801509328     2.131979801509327
    -2.131979801509327    -2.376665862136079     2.131979801509327
     2.131979801509327     2.131979801509327    -2.376665862136079
   2  48
    -0.093128240292786     0.065691192244054    -0.122281301495804
     0.065691192244054    -0.093128240292786     0.122281301495804
     0.074912041447422    -0.074912041447422     0.155988041981316
   2  49
    -0.093128240292786    -0.122281301495804    -0.065691192244054
     0.074912041447422     0.155988041981316     0.074912041447422
    -0.065691192244054    -0.122281301495804    -0.093128240292786
   2  50
    -0.093128240292786     0.065691192244054     0.122281301495804
     0.065691192244054    -0.093128240292786    -0.122281301495804
    -0.074912041447422     0.074912041447422     0.155988041981316
   2  51
     0.042079857046585    -0.028520091358988     0.028520091358988
    -0.028520091358988     0.042079857046585     0.028520091358988
     0.028520091358988     0.028520091358988     0.042079857046585
   2  52
     0.055958241840933    -0.000000000000000     0.000000000000000
    -0.000000000000000     0.055958241840933     0.000000000000000
     0.000000000000000     0.000000000000000     0.055958241840933
   2  53
     0.155988041981316    -0.074912041447422    -0.074912041447422
     0.122281301495804    -0.093128240292786    -0.065691192244054
     0.122281301495804    -0.065691192244054    -0.093128240292786
   2  54
     0.155988041981316     0.074912041447422     0.074912041447422
    -0.122281301495804    -0.093128240292786    -0.065691192244054
    -0.122281301495804    -0.065691192244054    -0.093128240292786
   2  55
     0.306863413700661    -0.004571180175328    -0.004571180175328
     0.171774003208089    -0.055973758599505     0.060860592268378
     0.171774003208089     0.060860592268378    -0.055973758599505
   2  56
     0.011168858701282     0.000000000000000     0.000000000000000
     0.000000000000000     0.011168858701282     0.000000000000000
     0.000000000000000     0.000000000000000     0.011168858701282
   2  57
     0.306863413700661     0.004571180175328     0.004571180175328
    -0.171774003208089    -0.055973758599505     0.060860592268378
    -0.171774003208089     0.060860592268378    -0.055973758599505
   2  58
    -0.055973758599505    -0.060860592268378     0.171774003208089
    -0.060860592268378    -0.055973758599505    -0.171774003208089
    -0.004571180175328     0.004571180175328     0.306863413700661
   2  59
    -0.055973758599505    -0.171774003208089     0.060860592268378
     0.004571180175328     0.306863413700661     0.004571180175328
     0.060860592268378    -0.171774003208089    -0.055973758599505
   2  60
     0.031150635677442    -0.043076591556494     0.043076591556494
    -0.043076591556494     0.031150635677442     0.043076591556494
     0.043076591556494     0.043076591556494     0.031150635677442
   2  61
    -2.174784049862623    -0.459923021745427     0.459923021745427
    -0.459923021745426    -2.174784049862623     0.459923021745426
     0.459923021745426     0.459923021745427    -2.174784049862623
   2  62
    -0.055973758599505     0.171774003208089     0.060860592268378
    -0.004571180175328     0.306863413700661    -0.004571180175328