 2139
 
    1
  0.000  0.000  0.000
  0.000  0.000  0.000
 1 1 1
 1 1 1    0.0000000000E+00
 1 1 2    0.0000000000E+00
 1 1 3    0.0000000000E+00
 1 2 1    0.0000000000E+00
 1 2 2    0.0000000000E+00
 1 2 3    0.2199944614E+02
 1 3 1    0.0000000000E+00
 1 3 2    0.2199944614E+02
 1 3 3    0.0000000000E+00
 2 1 1    0.0000000000E+00
 2 1 2    0.0000000000E+00
 2 1 3    0.2199944614E+02
 2 2 1    0.0000000000E+00
 2 2 2    0.0000000000E+00
 2 2 3    0.0000000000E+00
 2 3 1    0.2199944614E+02
 2 3 2    0.0000000000E+00
 2 3 3    0.0000000000E+00
 3 1 1    0.0000000000E+00
 3 1 2    0.2199944614E+02
 3 1 3    0.0000000000E+00
 3 2 1    0.2199944614E+02
 3 2 2    0.0000000000E+00
 3 2 3    0.0000000000E+00
 3 3 1    0.0000000000E+00
 3 3 2    0.0000000000E+00
 3 3 3    0.0000000000E+00
 
    2
  0.000  0.000  0.000
  0.000  0.000  0.000
 1 1 2
 1 1 1   -0.5033056091E+01
 1 1 2   -0.7337746337E+01
 1 1 3   -0.7337746337E+01
 1 2 1   -0.6611149999E+01
 1 2 2   -0.6611149999E+01
 1 2 3   -0.7985206999E+01
 1 3 1   -0.6611149999E+01
 1 3 2   -0.7985206999E+01
 1 3 3   -0.6611149999E+01
 2 1 1   -0.6611149999E+01
 2 1 2   -0.6611149999E+01
 2 1 3   -0.7985206999E+01
 2 2 1   -0.7337746337E+01
 2 2 2   -0.5033056091E+01
 2 2 3   -0.7337746337E+01
 2 3 1   -0.7985206999E+01
 2 3 2   -0.6611149999E+01
 2 3 3   -0.6611149999E+01
 3 1 1   -0.6611149999E+01
 3 1 2   -0.7985206999E+01
 3 1 3   -0.6611149999E+01
 3 2 1   -0.7985206999E+01
 3 2 2   -0.6611149999E+01
 3 2 3   -0.6611149999E+01
 3 3 1   -0.7337746337E+01
 3 3 2   -0.7337746337E+01
 3 3 3   -0.5033056091E+01
 
    3
  0.000  0.000  0.000
  0.000  0.000  0.000
 1 1 3
 1 1 1   -0.5573926132E+01
 1 1 2   -0.2064885694E+01
 1 1 3    0.2064885694E+01
 1 2 1   -0.2233023627E+01
 1 2 2   -0.2233023627E+01
 1 2 3    0.2327843211E+01
 1 3 1    0.2233023627E+01
 1 3 2    0.2327843211E+01
 1 3 3   -0.2233023627E+01
 2 1 1   -0.2233023627E+01
 2 1 2   -0.2233023627E+01
 2 1 3    0.2327843211E+01
 2 2 1   -0.2064885694E+01
 2 2 2   -0.5573926132E+01
 2 2 3    0.2064885694E+01
 2 3 1    0.2327843211E+01
 2 3 2    0.2233023627E+01
 2 3 3   -0.2233023627E+01
 3 1 1    0.2233023627E+01
 3 1 2    0.2327843211E+01
 3 1 3   -0.2233023627E+01
 3 2 1    0.2327843211E+01
 3 2 2    0.2233023627E+01
 3 2 3   -0.2233023627E+01
 3 3 1   -0.2064885694E+01
 3 3 2   -0.2064885694E+01
 3 3 3    0.5573926132E+01
 
    4
  0.000  0.000  0.000
  0.000  2.834  2.834
 1 1 1
 1 1 1    0.6700384118E+00
 1 1 2   -0.5320975886E-01
 1 1 3   -0.5320975886E-01
 1 2 1    0.1043308824E+01
 1 2 2    0.7835687987E+00
 1 2 3   -0.7039727947E-03
 1 3 1    0.1043308824E+01
 1 3 2   -0.7039727947E-03
 1 3 3    0.7835687987E+00
 2 1 1    0.1043308824E+01
 2 1 2    0.7835687987E+00
 2 1 3   -0.7039727947E-03
 2 2 1    0.1284370252E+01
 2 2 2   -0.8671497833E+00
 2 2 3   -0.9220927459E+00
 2 3 1   -0.1034009582E+01
 2 3 2   -0.1308046422E+01
 2 3 3   -0.1308046422E+01
 3 1 1    0.1043308824E+01
 3 1 2   -0.7039727947E-03
 3 1 3    0.7835687987E+00
 3 2 1   -0.1034009582E+01
 3 2 2   -0.1308046422E+01
 3 2 3   -0.1308046422E+01
 3 3 1    0.1284370252E+01
 3 3 2   -0.9220927459E+00
 3 3 3   -0.8671497833E+00
 
    5
  0.000  0.000  0.000
  0.000  2.834  2.834
 1 1 3
 1 1 1   -0.3649805761E+00
 1 1 2   -0.1340709244E+00
 1 1 3    0.2040233270E+00
 1 2 1   -0.2903794699E-01
 1 2 2    0.8686733020E-01
 1 2 3    0.2300725774E+00
 1 3 1   -0.2458153576E+00
 1 3 2    0.2603897880E+00
 1 3 3   -0.2458153576E+00
 2 1 1   -0.2903794699E-01
 2 1 2    0.8686733020E-01
 2 1 3    0.2300725774E+00
 2 2 1    0.2837250338E-01
 2 2 2    0.5343436307E+00
 2 2 3    0.2837250338E-01
 2 3 1    0.2300725774E+00
 2 3 2    0.8686733020E-01
 2 3 3   -0.2903794699E-01
 3 1 1   -0.2458153576E+00
 3 1 2    0.2603897880E+00
 3 1 3   -0.2458153576E+00
 3 2 1    0.2300725774E+00
 3 2 2    0.8686733020E-01
 3 2 3   -0.2903794699E-01
 3 3 1    0.2040233270E+00
 3 3 2   -0.1340709244E+00
 3 3 3   -0.3649805761E+00
 
    6
  0.000  0.000  0.000
  0.000 -2.834 -2.834
 1 1 1
 1 1 1    0.6700384118E+00
 1 1 2    0.5320975886E-01
 1 1 3    0.5320975886E-01
 1 2 1   -0.1043308824E+01
 1 2 2    0.7835687987E+00
 1 2 3   -0.7039727947E-03
 1 3 1   -0.1043308824E+01
 1 3 2   -0.7039727947E-03
 1 3 3    0.7835687987E+00
 2 1 1   -0.1043308824E+01
 2 1 2    0.7835687987E+00
 2 1 3   -0.7039727947E-03
 2 2 1    0.1284370252E+01
 2 2 2    0.8671497833E+00
 2 2 3    0.9220927459E+00
 2 3 1   -0.1034009582E+01
 2 3 2    0.1308046422E+01
 2 3 3    0.1308046422E+01
 3 1 1   -0.1043308824E+01
 3 1 2   -0.7039727947E-03
 3 1 3    0.7835687987E+00
 3 2 1   -0.1034009582E+01
 3 2 2    0.1308046422E+01
 3 2 3    0.1308046422E+01
 3 3 1    0.1284370252E+01
 3 3 2    0.9220927459E+00
 3 3 3    0.8671497833E+00
 
    7
  0.000  0.000  0.000
  0.000 -2.834 -2.834
 1 1 2
 1 1 1   -0.5033056091E+01
 1 1 2    0.7337746337E+01
 1 1 3    0.7337746337E+01
 1 2 1    0.6611149999E+01
 1 2 2   -0.6611149999E+01
 1 2 3   -0.7985206999E+01
 1 3 1    0.6611149999E+01
 1 3 2   -0.7985206999E+01
 1 3 3   -0.6611149999E+01
 2 1 1    0.6611149999E+01
 2 1 2   -0.6611149999E+01
 2 1 3   -0.7985206999E+01
 2 2 1   -0.7337746337E+01
 2 2 2    0.5033056091E+01
 2 2 3    0.7337746337E+01
 2 3 1   -0.7985206999E+01
 2 3 2    0.6611149999E+01
 2 3 3    0.6611149999E+01
 3 1 1    0.6611149999E+01
 3 1 2   -0.7985206999E+01
 3 1 3   -0.6611149999E+01
 3 2 1   -0.7985206999E+01
 3 2 2    0.6611149999E+01
 3 2 3    0.6611149999E+01
 3 3 1   -0.7337746337E+01
 3 3 2    0.7337746337E+01
 3 3 3    0.5033056091E+01
 
    8
  0.000  0.000  0.000
  0.000 -2.834 -2.834
 1 1 3
 1 1 1   -0.3649805761E+00
 1 1 2   -0.2040233270E+00
 1 1 3    0.1340709244E+00
 1 2 1    0.2458153576E+00
 1 2 2   -0.2458153576E+00
 1 2 3    0.2603897880E+00
 1 3 1    0.2903794699E-01
 1 3 2    0.2300725774E+00
 1 3 3    0.8686733020E-01
 2 1 1    0.2458153576E+00
 2 1 2   -0.2458153576E+00
 2 1 3    0.2603897880E+00
 2 2 1    0.2040233270E+00
 2 2 2    0.3649805761E+00
 2 2 3    0.1340709244E+00
 2 3 1    0.2300725774E+00
 2 3 2    0.2903794699E-01
 2 3 3   -0.8686733020E-01
 3 1 1    0.2903794699E-01
 3 1 2    0.2300725774E+00
 3 1 3    0.8686733020E-01
 3 2 1    0.2300725774E+00
 3 2 2    0.2903794699E-01
 3 2 3   -0.8686733020E-01
 3 3 1    0.2837250338E-01
 3 3 2   -0.2837250338E-01
 3 3 3   -0.5343436307E+00
 
    9
  0.000  0.000  0.000
  2.834  0.000  2.834
 1 1 1
 1 1 1   -0.8671497833E+00
 1 1 2    0.1284370252E+01
 1 1 3   -0.9220927459E+00
 1 2 1    0.7835687987E+00
 1 2 2    0.1043308824E+01
 1 2 3   -0.7039727947E-03
 1 3 1   -0.1308046422E+01
 1 3 2   -0.1034009582E+01
 1 3 3   -0.1308046422E+01
 2 1 1    0.7835687987E+00
 2 1 2    0.1043308824E+01
 2 1 3   -0.7039727947E-03
 2 2 1   -0.5320975886E-01
 2 2 2    0.6700384118E+00
 2 2 3   -0.5320975886E-01
 2 3 1   -0.7039727947E-03
 2 3 2    0.1043308824E+01
 2 3 3    0.7835687987E+00
 3 1 1   -0.1308046422E+01
 3 1 2   -0.1034009582E+01
 3 1 3   -0.1308046422E+01
 3 2 1   -0.7039727947E-03
 3 2 2    0.1043308824E+01
 3 2 3    0.7835687987E+00
 3 3 1   -0.9220927459E+00
 3 3 2    0.1284370252E+01
 3 3 3   -0.8671497833E+00
 
   10
  0.000  0.000  0.000
  2.834  0.000  2.834
 1 1 3
 1 1 1    0.5343436307E+00
 1 1 2    0.2837250338E-01
 1 1 3    0.2837250338E-01
 1 2 1    0.8686733020E-01
 1 2 2   -0.2903794699E-01
 1 2 3    0.2300725774E+00
 1 3 1    0.8686733020E-01
 1 3 2    0.2300725774E+00
 1 3 3   -0.2903794699E-01
 2 1 1    0.8686733020E-01
 2 1 2   -0.2903794699E-01
 2 1 3    0.2300725774E+00
 2 2 1   -0.1340709244E+00
 2 2 2   -0.3649805761E+00
 2 2 3    0.2040233270E+00
 2 3 1    0.2603897880E+00
 2 3 2   -0.2458153576E+00
 2 3 3   -0.2458153576E+00
 3 1 1    0.8686733020E-01
 3 1 2    0.2300725774E+00
 3 1 3   -0.2903794699E-01
 3 2 1    0.2603897880E+00
 3 2 2   -0.2458153576E+00
 3 2 3   -0.2458153576E+00
 3 3 1   -0.1340709244E+00
 3 3 2    0.2040233270E+00
 3 3 3   -0.3649805761E+00
 
   11
  0.000  0.000  0.000
  2.834 -2.834  0.000
 1 1 1
 1 1 1   -0.8671497833E+00
 1 1 2    0.9220927459E+00
 1 1 3   -0.1284370252E+01
 1 2 1    0.1308046422E+01
 1 2 2   -0.1308046422E+01
 1 2 3   -0.1034009582E+01
 1 3 1   -0.7835687987E+00
 1 3 2   -0.7039727947E-03
 1 3 3    0.1043308824E+01
 2 1 1    0.1308046422E+01
 2 1 2   -0.1308046422E+01
 2 1 3   -0.1034009582E+01
 2 2 1   -0.9220927459E+00
 2 2 2    0.8671497833E+00
 2 2 3   -0.1284370252E+01
 2 3 1   -0.7039727947E-03
 2 3 2   -0.7835687987E+00
 2 3 3   -0.1043308824E+01
 3 1 1   -0.7835687987E+00
 3 1 2   -0.7039727947E-03
 3 1 3    0.1043308824E+01
 3 2 1   -0.7039727947E-03
 3 2 2   -0.7835687987E+00
 3 2 3   -0.1043308824E+01
 3 3 1   -0.5320975886E-01
 3 3 2    0.5320975886E-01
 3 3 3   -0.6700384118E+00
 
   12
  0.000  0.000  0.000
  2.834 -2.834  0.000
 1 1 2
 1 1 1   -0.2902487393E+00
 1 1 2   -0.2787804510E+00
 1 1 3    0.2787804510E+00
 1 2 1   -0.3462274486E+00
 1 2 2   -0.4996455487E+00
 1 2 3    0.9723836536E-01
 1 3 1    0.3462274486E+00
 1 3 2    0.9723836536E-01
 1 3 3   -0.4996455487E+00
 2 1 1   -0.3462274486E+00
 2 1 2   -0.4996455487E+00
 2 1 3    0.9723836536E-01
 2 2 1   -0.5607088018E+00
 2 2 2   -0.2624866251E+00
 2 2 3    0.3648314713E+00
 2 3 1    0.2779081070E+00
 2 3 2    0.2032392584E+00
 2 3 3   -0.2032392584E+00
 3 1 1    0.3462274486E+00
 3 1 2    0.9723836536E-01
 3 1 3   -0.4996455487E+00
 3 2 1    0.2779081070E+00
 3 2 2    0.2032392584E+00
 3 2 3   -0.2032392584E+00
 3 3 1   -0.5607088018E+00
 3 3 2   -0.3648314713E+00
 3 3 3    0.2624866251E+00
 
   13
  0.000  0.000  0.000
  2.834 -2.834  0.000
 1 1 3
 1 1 1    0.5343436307E+00
 1 1 2   -0.2837250338E-01
 1 1 3   -0.2837250338E-01
 1 2 1   -0.8686733020E-01
 1 2 2   -0.2903794699E-01
 1 2 3    0.2300725774E+00
 1 3 1   -0.8686733020E-01
 1 3 2    0.2300725774E+00
 1 3 3   -0.2903794699E-01
 2 1 1   -0.8686733020E-01
 2 1 2   -0.2903794699E-01
 2 1 3    0.2300725774E+00
 2 2 1   -0.1340709244E+00
 2 2 2    0.3649805761E+00
 2 2 3   -0.2040233270E+00
 2 3 1    0.2603897880E+00
 2 3 2    0.2458153576E+00
 2 3 3    0.2458153576E+00
 3 1 1   -0.8686733020E-01
 3 1 2    0.2300725774E+00
 3 1 3   -0.2903794699E-01
 3 2 1    0.2603897880E+00
 3 2 2    0.2458153576E+00
 3 2 3    0.2458153576E+00
 3 3 1   -0.1340709244E+00
 3 3 2   -0.2040233270E+00
 3 3 3    0.3649805761E+00
 
   14
  0.000  0.000  0.000
 -2.834  0.000 -2.834
 1 1 1
 1 1 1    0.8671497833E+00
 1 1 2    0.1284370252E+01
 1 1 3    0.9220927459E+00
 1 2 1    0.7835687987E+00
 1 2 2   -0.1043308824E+01
 1 2 3   -0.7039727947E-03
 1 3 1    0.1308046422E+01
 1 3 2   -0.1034009582E+01
 1 3 3    0.1308046422E+01
 2 1 1    0.7835687987E+00
 2 1 2   -0.1043308824E+01
 2 1 3   -0.7039727947E-03
 2 2 1    0.5320975886E-01
 2 2 2    0.6700384118E+00
 2 2 3    0.5320975886E-01
 2 3 1   -0.7039727947E-03
 2 3 2   -0.1043308824E+01
 2 3 3    0.7835687987E+00
 3 1 1    0.1308046422E+01
 3 1 2   -0.1034009582E+01
 3 1 3    0.1308046422E+01
 3 2 1   -0.7039727947E-03
 3 2 2   -0.1043308824E+01
 3 2 3    0.7835687987E+00
 3 3 1    0.9220927459E+00
 3 3 2    0.1284370252E+01
 3 3 3    0.8671497833E+00
 
   15
  0.000  0.000  0.000
 -2.834  0.000 -2.834
 1 1 2
 1 1 1    0.5033056091E+01
 1 1 2   -0.7337746337E+01
 1 1 3    0.7337746337E+01
 1 2 1   -0.6611149999E+01
 1 2 2    0.6611149999E+01
 1 2 3   -0.7985206999E+01
 1 3 1    0.6611149999E+01
 1 3 2   -0.7985206999E+01
 1 3 3    0.6611149999E+01
 2 1 1   -0.6611149999E+01
 2 1 2    0.6611149999E+01
 2 1 3   -0.7985206999E+01
 2 2 1    0.7337746337E+01
 2 2 2   -0.5033056091E+01
 2 2 3    0.7337746337E+01
 2 3 1   -0.7985206999E+01
 2 3 2    0.6611149999E+01
 2 3 3   -0.6611149999E+01
 3 1 1    0.6611149999E+01
 3 1 2   -0.7985206999E+01
 3 1 3    0.6611149999E+01
 3 2 1   -0.7985206999E+01
 3 2 2    0.6611149999E+01
 3 2 3   -0.6611149999E+01
 3 3 1    0.7337746337E+01
 3 3 2   -0.7337746337E+01
 3 3 3    0.5033056091E+01
 
   16
  0.000  0.000  0.000
 -2.834  0.000 -2.834
 1 1 3
 1 1 1    0.3649805761E+00
 1 1 2    0.2040233270E+00
 1 1 3    0.1340709244E+00
 1 2 1   -0.2458153576E+00
 1 2 2    0.2458153576E+00
 1 2 3    0.2603897880E+00
 1 3 1    0.2903794699E-01
 1 3 2    0.2300725774E+00
 1 3 3   -0.8686733020E-01
 2 1 1   -0.2458153576E+00
 2 1 2    0.2458153576E+00
 2 1 3    0.2603897880E+00
 2 2 1   -0.2040233270E+00
 2 2 2   -0.3649805761E+00
 2 2 3    0.1340709244E+00
 2 3 1    0.2300725774E+00
 2 3 2    0.2903794699E-01
 2 3 3    0.8686733020E-01
 3 1 1    0.2903794699E-01
 3 1 2    0.2300725774E+00
 3 1 3   -0.8686733020E-01
 3 2 1    0.2300725774E+00
 3 2 2    0.2903794699E-01
 3 2 3    0.8686733020E-01
 3 3 1   -0.2837250338E-01
 3 3 2    0.2837250338E-01
 3 3 3   -0.5343436307E+00
 
   17
  0.000  0.000  0.000
 -2.834  2.834  0.000
 1 1 1
 1 1 1    0.8671497833E+00
 1 1 2   -0.9220927459E+00
 1 1 3   -0.1284370252E+01
 1 2 1   -0.1308046422E+01
 1 2 2    0.1308046422E+01
 1 2 3   -0.1034009582E+01
 1 3 1   -0.7835687987E+00
 1 3 2   -0.7039727947E-03
 1 3 3   -0.1043308824E+01
 2 1 1   -0.1308046422E+01
 2 1 2    0.1308046422E+01
 2 1 3   -0.1034009582E+01
 2 2 1    0.9220927459E+00
 2 2 2   -0.8671497833E+00
 2 2 3   -0.1284370252E+01
 2 3 1   -0.7039727947E-03
 2 3 2   -0.7835687987E+00
 2 3 3    0.1043308824E+01
 3 1 1   -0.7835687987E+00
 3 1 2   -0.7039727947E-03
 3 1 3   -0.1043308824E+01
 3 2 1   -0.7039727947E-03
 3 2 2   -0.7835687987E+00
 3 2 3    0.1043308824E+01
 3 3 1    0.5320975886E-01
 3 3 2   -0.5320975886E-01
 3 3 3   -0.6700384118E+00
 
   18
  0.000  0.000  0.000
 -2.834  2.834  0.000
 1 1 2
 1 1 1   -0.2624866251E+00
 1 1 2   -0.5607088018E+00
 1 1 3    0.3648314713E+00
 1 2 1   -0.4996455487E+00
 1 2 2   -0.3462274486E+00
 1 2 3    0.9723836536E-01
 1 3 1    0.2032392584E+00
 1 3 2    0.2779081070E+00
 1 3 3   -0.2032392584E+00
 2 1 1   -0.4996455487E+00
 2 1 2   -0.3462274486E+00
 2 1 3    0.9723836536E-01
 2 2 1   -0.2787804510E+00
 2 2 2   -0.2902487393E+00
 2 2 3    0.2787804510E+00
 2 3 1    0.9723836536E-01
 2 3 2    0.3462274486E+00
 2 3 3   -0.4996455487E+00
 3 1 1    0.2032392584E+00
 3 1 2    0.2779081070E+00
 3 1 3   -0.2032392584E+00
 3 2 1    0.9723836536E-01
 3 2 2    0.3462274486E+00
 3 2 3   -0.4996455487E+00
 3 3 1   -0.3648314713E+00
 3 3 2   -0.5607088018E+00
 3 3 3    0.2624866251E+00
 
   19
  0.000  0.000  0.000
 -2.834  2.834  0.000
 1 1 3
 1 1 1    0.3649805761E+00
 1 1 2   -0.1340709244E+00
 1 1 3   -0.2040233270E+00
 1 2 1   -0.2903794699E-01
 1 2 2   -0.8686733020E-01
 1 2 3    0.2300725774E+00
 1 3 1    0.2458153576E+00
 1 3 2    0.2603897880E+00
 1 3 3    0.2458153576E+00
 2 1 1   -0.2903794699E-01
 2 1 2   -0.8686733020E-01
 2 1 3    0.2300725774E+00
 2 2 1   -0.2837250338E-01
 2 2 2    0.5343436307E+00
 2 2 3   -0.2837250338E-01
 2 3 1    0.2300725774E+00
 2 3 2   -0.8686733020E-01
 2 3 3   -0.2903794699E-01
 3 1 1    0.2458153576E+00
 3 1 2    0.2603897880E+00
 3 1 3    0.2458153576E+00
 3 2 1    0.2300725774E+00
 3 2 2   -0.8686733020E-01
 3 2 3   -0.2903794699E-01
 3 3 1   -0.2040233270E+00
 3 3 2   -0.1340709244E+00
 3 3 3    0.3649805761E+00
 
   20
  0.000  0.000  0.000
 -2.834 -2.834 -5.667
 1 1 2
 1 1 1   -0.2624866251E+00
 1 1 2   -0.3648314713E+00
 1 1 3    0.5607088018E+00
 1 2 1   -0.2032392584E+00
 1 2 2   -0.2032392584E+00
 1 2 3    0.2779081070E+00
 1 3 1    0.4996455487E+00
 1 3 2    0.9723836536E-01
 1 3 3   -0.3462274486E+00
 2 1 1   -0.2032392584E+00
 2 1 2   -0.2032392584E+00
 2 1 3    0.2779081070E+00
 2 2 1   -0.3648314713E+00
 2 2 2   -0.2624866251E+00
 2 2 3    0.5607088018E+00
 2 3 1    0.9723836536E-01
 2 3 2    0.4996455487E+00
 2 3 3   -0.3462274486E+00
 3 1 1    0.4996455487E+00
 3 1 2    0.9723836536E-01
 3 1 3   -0.3462274486E+00
 3 2 1    0.9723836536E-01
 3 2 2    0.4996455487E+00
 3 2 3   -0.3462274486E+00
 3 3 1   -0.2787804510E+00
 3 3 2   -0.2787804510E+00
 3 3 3    0.2902487393E+00
 
   21
  0.000  0.000  0.000
  2.834  2.834  0.000
 1 1 1
 1 1 1   -0.8671497833E+00
 1 1 2   -0.9220927459E+00
 1 1 3    0.1284370252E+01
 1 2 1   -0.1308046422E+01
 1 2 2   -0.1308046422E+01
 1 2 3   -0.1034009582E+01
 1 3 1    0.7835687987E+00
 1 3 2   -0.7039727947E-03
 1 3 3    0.1043308824E+01
 2 1 1   -0.1308046422E+01
 2 1 2   -0.1308046422E+01
 2 1 3   -0.1034009582E+01
 2 2 1   -0.9220927459E+00
 2 2 2   -0.8671497833E+00
 2 2 3    0.1284370252E+01
 2 3 1   -0.7039727947E-03
 2 3 2    0.7835687987E+00
 2 3 3    0.1043308824E+01
 3 1 1    0.7835687987E+00
 3 1 2   -0.7039727947E-03
 3 1 3    0.1043308824E+01
 3 2 1   -0.7039727947E-03
 3 2 2    0.7835687987E+00
 3 2 3    0.1043308824E+01
 3 3 1   -0.5320975886E-01
 3 3 2   -0.5320975886E-01
 3 3 3    0.6700384118E+00
 
   22
  0.000  0.000  0.000
  2.834  0.000 -2.834
 1 1 1
 1 1 1   -0.8671497833E+00
 1 1 2   -0.1284370252E+01
 1 1 3    0.9220927459E+00
 1 2 1   -0.7835687987E+00
 1 2 2    0.1043308824E+01
 1 2 3   -0.7039727947E-03
 1 3 1    0.1308046422E+01
 1 3 2   -0.1034009582E+01
 1 3 3   -0.1308046422E+01
 2 1 1   -0.7835687987E+00
 2 1 2    0.1043308824E+01
 2 1 3   -0.7039727947E-03
 2 2 1   -0.5320975886E-01
 2 2 2   -0.6700384118E+00
 2 2 3    0.5320975886E-01
 2 3 1   -0.7039727947E-03
 2 3 2   -0.1043308824E+01
 2 3 3   -0.7835687987E+00
 3 1 1    0.1308046422E+01
 3 1 2   -0.1034009582E+01
 3 1 3   -0.1308046422E+01
 3 2 1   -0.7039727947E-03
 3 2 2   -0.1043308824E+01
 3 2 3   -0.7835687987E+00
 3 3 1   -0.9220927459E+00
 3 3 2   -0.1284370252E+01
 3 3 3    0.8671497833E+00
 
   23
  0.000  0.000  0.000
  2.834  0.000 -2.834
 1 1 2
 1 1 1   -0.2902487393E+00
 1 1 2    0.2787804510E+00
 1 1 3   -0.2787804510E+00
 1 2 1    0.3462274486E+00
 1 2 2   -0.4996455487E+00
 1 2 3    0.9723836536E-01
 1 3 1   -0.3462274486E+00
 1 3 2    0.9723836536E-01
 1 3 3   -0.4996455487E+00
 2 1 1    0.3462274486E+00
 2 1 2   -0.4996455487E+00
 2 1 3    0.9723836536E-01
 2 2 1   -0.5607088018E+00
 2 2 2    0.2624866251E+00
 2 2 3   -0.3648314713E+00
 2 3 1    0.2779081070E+00
 2 3 2   -0.2032392584E+00
 2 3 3    0.2032392584E+00
 3 1 1   -0.3462274486E+00
 3 1 2    0.9723836536E-01
 3 1 3   -0.4996455487E+00
 3 2 1    0.2779081070E+00
 3 2 2   -0.2032392584E+00
 3 2 3    0.2032392584E+00
 3 3 1   -0.5607088018E+00
 3 3 2    0.3648314713E+00
 3 3 3   -0.2624866251E+00
 
   24
  0.000  0.000  0.000
  0.000  2.834 -2.834
 1 1 1
 1 1 1   -0.6700384118E+00
 1 1 2   -0.5320975886E-01
 1 1 3    0.5320975886E-01
 1 2 1    0.1043308824E+01
 1 2 2   -0.7835687987E+00
 1 2 3   -0.7039727947E-03
 1 3 1   -0.1043308824E+01
 1 3 2   -0.7039727947E-03
 1 3 3   -0.7835687987E+00
 2 1 1    0.1043308824E+01
 2 1 2   -0.7835687987E+00
 2 1 3   -0.7039727947E-03
 2 2 1   -0.1284370252E+01
 2 2 2   -0.8671497833E+00
 2 2 3    0.9220927459E+00
 2 3 1   -0.1034009582E+01
 2 3 2    0.1308046422E+01
 2 3 3   -0.1308046422E+01
 3 1 1   -0.1043308824E+01
 3 1 2   -0.7039727947E-03
 3 1 3   -0.7835687987E+00
 3 2 1   -0.1034009582E+01
 3 2 2    0.1308046422E+01
 3 2 3   -0.1308046422E+01
 3 3 1   -0.1284370252E+01
 3 3 2   -0.9220927459E+00
 3 3 3    0.8671497833E+00
 
   25
  0.000  0.000  0.000
  0.000  2.834 -2.834
 1 1 2
 1 1 1    0.2624866251E+00
 1 1 2   -0.5607088018E+00
 1 1 3   -0.3648314713E+00
 1 2 1   -0.4996455487E+00
 1 2 2    0.3462274486E+00
 1 2 3    0.9723836536E-01
 1 3 1   -0.2032392584E+00
 1 3 2    0.2779081070E+00
 1 3 3    0.2032392584E+00
 2 1 1   -0.4996455487E+00
 2 1 2    0.3462274486E+00
 2 1 3    0.9723836536E-01
 2 2 1    0.2787804510E+00
 2 2 2   -0.2902487393E+00
 2 2 3   -0.2787804510E+00
 2 3 1    0.9723836536E-01
 2 3 2   -0.3462274486E+00
 2 3 3   -0.4996455487E+00
 3 1 1   -0.2032392584E+00
 3 1 2    0.2779081070E+00
 3 1 3    0.2032392584E+00
 3 2 1    0.9723836536E-01
 3 2 2   -0.3462274486E+00
 3 2 3   -0.4996455487E+00
 3 3 1    0.3648314713E+00
 3 3 2   -0.5607088018E+00
 3 3 3   -0.2624866251E+00
 
   26
  0.000  0.000  0.000
  0.000  0.000 -5.667
 1 1 2
 1 1 1    0.2624866251E+00
 1 1 2    0.3648314713E+00
 1 1 3    0.5607088018E+00
 1 2 1    0.2032392584E+00
 1 2 2    0.2032392584E+00
 1 2 3    0.2779081070E+00
 1 3 1    0.4996455487E+00
 1 3 2    0.9723836536E-01
 1 3 3    0.3462274486E+00
 2 1 1    0.2032392584E+00
 2 1 2    0.2032392584E+00
 2 1 3    0.2779081070E+00
 2 2 1    0.3648314713E+00
 2 2 2    0.2624866251E+00
 2 2 3    0.5607088018E+00
 2 3 1    0.9723836536E-01
 2 3 2    0.4996455487E+00
 2 3 3    0.3462274486E+00
 3 1 1    0.4996455487E+00
 3 1 2    0.9723836536E-01
 3 1 3    0.3462274486E+00
 3 2 1    0.9723836536E-01
 3 2 2    0.4996455487E+00
 3 2 3    0.3462274486E+00
 3 3 1    0.2787804510E+00
 3 3 2    0.2787804510E+00
 3 3 3    0.2902487393E+00
 
   27
  0.000  0.000  0.000
 -5.667 -2.834  2.834
 1 1 3
 1 1 1   -0.5343436307E+00
 1 1 2   -0.2837250338E-01
 1 1 3    0.2837250338E-01
 1 2 1   -0.8686733020E-01
 1 2 2    0.2903794699E-01
 1 2 3    0.2300725774E+00
 1 3 1    0.8686733020E-01
 1 3 2    0.2300725774E+00
 1 3 3    0.2903794699E-01
 2 1 1   -0.8686733020E-01
 2 1 2    0.2903794699E-01
 2 1 3    0.2300725774E+00
 2 2 1    0.1340709244E+00
 2 2 2    0.3649805761E+00
 2 2 3    0.2040233270E+00
 2 3 1    0.2603897880E+00
 2 3 2   -0.2458153576E+00
 2 3 3    0.2458153576E+00
 3 1 1    0.8686733020E-01
 3 1 2    0.2300725774E+00
 3 1 3    0.2903794699E-01
 3 2 1    0.2603897880E+00
 3 2 2   -0.2458153576E+00
 3 2 3    0.2458153576E+00
 3 3 1    0.1340709244E+00
 3 3 2   -0.2040233270E+00
 3 3 3   -0.3649805761E+00
 
   28
  0.000  0.000  0.000
 -2.834 -5.667  2.834
 1 1 3
 1 1 1    0.3649805761E+00
 1 1 2    0.1340709244E+00
 1 1 3    0.2040233270E+00
 1 2 1    0.2903794699E-01
 1 2 2   -0.8686733020E-01
 1 2 3    0.2300725774E+00
 1 3 1   -0.2458153576E+00
 1 3 2    0.2603897880E+00
 1 3 3    0.2458153576E+00
 2 1 1    0.2903794699E-01
 2 1 2   -0.8686733020E-01
 2 1 3    0.2300725774E+00
 2 2 1   -0.2837250338E-01
 2 2 2   -0.5343436307E+00
 2 2 3    0.2837250338E-01
 2 3 1    0.2300725774E+00
 2 3 2    0.8686733020E-01
 2 3 3    0.2903794699E-01
 3 1 1   -0.2458153576E+00
 3 1 2    0.2603897880E+00
 3 1 3    0.2458153576E+00
 3 2 1    0.2300725774E+00
 3 2 2    0.8686733020E-01
 3 2 3    0.2903794699E-01
 3 3 1   -0.2040233270E+00
 3 3 2    0.1340709244E+00
 3 3 3   -0.3649805761E+00
 
   29
  0.000  0.000  0.000
 -2.834 -2.834  5.667
 1 1 3
 1 1 1    0.3649805761E+00
 1 1 2   -0.2040233270E+00
 1 1 3   -0.1340709244E+00
 1 2 1    0.2458153576E+00
 1 2 2    0.2458153576E+00
 1 2 3    0.2603897880E+00
 1 3 1   -0.2903794699E-01
 1 3 2    0.2300725774E+00
 1 3 3   -0.8686733020E-01
 2 1 1    0.2458153576E+00
 2 1 2    0.2458153576E+00
 2 1 3    0.2603897880E+00
 2 2 1   -0.2040233270E+00
 2 2 2    0.3649805761E+00
 2 2 3   -0.1340709244E+00
 2 3 1    0.2300725774E+00
 2 3 2   -0.2903794699E-01
 2 3 3   -0.8686733020E-01
 3 1 1   -0.2903794699E-01
 3 1 2    0.2300725774E+00
 3 1 3   -0.8686733020E-01
 3 2 1    0.2300725774E+00
 3 2 2   -0.2903794699E-01
 3 2 3   -0.8686733020E-01
 3 3 1   -0.2837250338E-01
 3 3 2   -0.2837250338E-01
 3 3 3    0.5343436307E+00
 
   30
  0.000  0.000  0.000
 -2.834 -2.834  0.000
 1 1 1
 1 1 1    0.8671497833E+00
 1 1 2    0.9220927459E+00
 1 1 3    0.1284370252E+01
 1 2 1    0.1308046422E+01
 1 2 2    0.1308046422E+01
 1 2 3   -0.1034009582E+01
 1 3 1    0.7835687987E+00
 1 3 2   -0.7039727947E-03
 1 3 3   -0.1043308824E+01
 2 1 1    0.1308046422E+01
 2 1 2    0.1308046422E+01
 2 1 3   -0.1034009582E+01
 2 2 1    0.9220927459E+00
 2 2 2    0.8671497833E+00
 2 2 3    0.1284370252E+01
 2 3 1   -0.7039727947E-03
 2 3 2    0.7835687987E+00
 2 3 3   -0.1043308824E+01
 3 1 1    0.7835687987E+00
 3 1 2   -0.7039727947E-03
 3 1 3   -0.1043308824E+01
 3 2 1   -0.7039727947E-03
 3 2 2    0.7835687987E+00
 3 2 3   -0.1043308824E+01
 3 3 1    0.5320975886E-01
 3 3 2    0.5320975886E-01
 3 3 3    0.6700384118E+00
 
   31
  0.000  0.000  0.000
 -2.834 -2.834  0.000
 1 1 2
 1 1 1    0.5033056091E+01
 1 1 2    0.7337746337E+01
 1 1 3   -0.7337746337E+01
 1 2 1    0.6611149999E+01
 1 2 2    0.6611149999E+01
 1 2 3   -0.7985206999E+01
 1 3 1   -0.6611149999E+01
 1 3 2   -0.7985206999E+01
 1 3 3    0.6611149999E+01
 2 1 1    0.6611149999E+01
 2 1 2    0.6611149999E+01
 2 1 3   -0.7985206999E+01
 2 2 1    0.7337746337E+01
 2 2 2    0.5033056091E+01
 2 2 3   -0.7337746337E+01
 2 3 1   -0.7985206999E+01
 2 3 2   -0.6611149999E+01
 2 3 3    0.6611149999E+01
 3 1 1   -0.6611149999E+01
 3 1 2   -0.7985206999E+01
 3 1 3    0.6611149999E+01
 3 2 1   -0.7985206999E+01
 3 2 2   -0.6611149999E+01
 3 2 3    0.6611149999E+01
 3 3 1    0.7337746337E+01
 3 3 2    0.7337746337E+01
 3 3 3   -0.5033056091E+01
 
   32
  0.000  0.000  0.000
 -2.834 -2.834  0.000
 1 1 3
 1 1 1    0.5573926132E+01
 1 1 2    0.2064885694E+01
 1 1 3    0.2064885694E+01
 1 2 1    0.2233023627E+01
 1 2 2    0.2233023627E+01
 1 2 3    0.2327843211E+01
 1 3 1    0.2233023627E+01
 1 3 2    0.2327843211E+01
 1 3 3    0.2233023627E+01
 2 1 1    0.2233023627E+01
 2 1 2    0.2233023627E+01
 2 1 3    0.2327843211E+01
 2 2 1    0.2064885694E+01
 2 2 2    0.5573926132E+01
 2 2 3    0.2064885694E+01
 2 3 1    0.2327843211E+01
 2 3 2    0.2233023627E+01
 2 3 3    0.2233023627E+01
 3 1 1    0.2233023627E+01
 3 1 2    0.2327843211E+01
 3 1 3    0.2233023627E+01
 3 2 1    0.2327843211E+01
 3 2 2    0.2233023627E+01
 3 2 3    0.2233023627E+01
 3 3 1    0.2064885694E+01
 3 3 2    0.2064885694E+01
 3 3 3    0.5573926132E+01
 
   33
  0.000  0.000  0.000
 -2.834  0.000  2.834
 1 1 1
 1 1 1    0.8671497833E+00
 1 1 2   -0.1284370252E+01
 1 1 3   -0.9220927459E+00
 1 2 1   -0.7835687987E+00
 1 2 2   -0.1043308824E+01
 1 2 3   -0.7039727947E-03
 1 3 1   -0.1308046422E+01
 1 3 2   -0.1034009582E+01
 1 3 3    0.1308046422E+01
 2 1 1   -0.7835687987E+00
 2 1 2   -0.1043308824E+01
 2 1 3   -0.7039727947E-03
 2 2 1    0.5320975886E-01
 2 2 2   -0.6700384118E+00
 2 2 3   -0.5320975886E-01
 2 3 1   -0.7039727947E-03
 2 3 2    0.1043308824E+01
 2 3 3   -0.7835687987E+00
 3 1 1   -0.1308046422E+01
 3 1 2   -0.1034009582E+01
 3 1 3    0.1308046422E+01
 3 2 1   -0.7039727947E-03
 3 2 2    0.1043308824E+01
 3 2 3   -0.7835687987E+00
 3 3 1    0.9220927459E+00
 3 3 2   -0.1284370252E+01
 3 3 3   -0.8671497833E+00
 
   34
  0.000  0.000  0.000
 -2.834  0.000  2.834
 1 1 2
 1 1 1   -0.2624866251E+00
 1 1 2    0.3648314713E+00
 1 1 3   -0.5607088018E+00
 1 2 1    0.2032392584E+00
 1 2 2   -0.2032392584E+00
 1 2 3    0.2779081070E+00
 1 3 1   -0.4996455487E+00
 1 3 2    0.9723836536E-01
 1 3 3   -0.3462274486E+00
 2 1 1    0.2032392584E+00
 2 1 2   -0.2032392584E+00
 2 1 3    0.2779081070E+00
 2 2 1   -0.3648314713E+00
 2 2 2    0.2624866251E+00
 2 2 3   -0.5607088018E+00
 2 3 1    0.9723836536E-01
 2 3 2   -0.4996455487E+00
 2 3 3    0.3462274486E+00
 3 1 1   -0.4996455487E+00
 3 1 2    0.9723836536E-01
 3 1 3   -0.3462274486E+00
 3 2 1    0.9723836536E-01
 3 2 2   -0.4996455487E+00
 3 2 3    0.3462274486E+00
 3 3 1   -0.2787804510E+00
 3 3 2    0.2787804510E+00
 3 3 3   -0.2902487393E+00
 
   35
  0.000  0.000  0.000
 -2.834  0.000  2.834
 1 1 3
 1 1 1    0.5573926132E+01
 1 1 2   -0.2064885694E+01
 1 1 3   -0.2064885694E+01
 1 2 1   -0.2233023627E+01
 1 2 2    0.2233023627E+01
 1 2 3    0.2327843211E+01
 1 3 1   -0.2233023627E+01
 1 3 2    0.2327843211E+01
 1 3 3    0.2233023627E+01
 2 1 1   -0.2233023627E+01
 2 1 2    0.2233023627E+01
 2 1 3    0.2327843211E+01
 2 2 1    0.2064885694E+01
 2 2 2   -0.5573926132E+01
 2 2 3   -0.2064885694E+01
 2 3 1    0.2327843211E+01
 2 3 2   -0.2233023627E+01
 2 3 3   -0.2233023627E+01
 3 1 1   -0.2233023627E+01
 3 1 2    0.2327843211E+01
 3 1 3    0.2233023627E+01
 3 2 1    0.2327843211E+01
 3 2 2   -0.2233023627E+01
 3 2 3   -0.2233023627E+01
 3 3 1    0.2064885694E+01
 3 3 2   -0.2064885694E+01
 3 3 3   -0.5573926132E+01
 
   36
  0.000  0.000  0.000
 -2.834 -5.667 -2.834
 1 1 2
 1 1 1   -0.2624866251E+00
 1 1 2    0.5607088018E+00
 1 1 3   -0.3648314713E+00
 1 2 1    0.4996455487E+00
 1 2 2   -0.3462274486E+00
 1 2 3    0.9723836536E-01
 1 3 1   -0.2032392584E+00
 1 3 2    0.2779081070E+00
 1 3 3   -0.2032392584E+00
 2 1 1    0.4996455487E+00
 2 1 2   -0.3462274486E+00
 2 1 3    0.9723836536E-01
 2 2 1   -0.2787804510E+00
 2 2 2    0.2902487393E+00
 2 2 3   -0.2787804510E+00
 2 3 1    0.9723836536E-01
 2 3 2   -0.3462274486E+00
 2 3 3    0.4996455487E+00
 3 1 1   -0.2032392584E+00
 3 1 2    0.2779081070E+00
 3 1 3   -0.2032392584E+00
 3 2 1    0.9723836536E-01
 3 2 2   -0.3462274486E+00
 3 2 3    0.4996455487E+00
 3 3 1   -0.3648314713E+00
 3 3 2    0.5607088018E+00
 3 3 3   -0.2624866251E+00
 
   37
  0.000  0.000  0.000
  0.000 -2.834  2.834
 1 1 1
 1 1 1   -0.6700384118E+00
 1 1 2    0.5320975886E-01
 1 1 3   -0.5320975886E-01
 1 2 1   -0.1043308824E+01
 1 2 2   -0.7835687987E+00
 1 2 3   -0.7039727947E-03
 1 3 1    0.1043308824E+01
 1 3 2   -0.7039727947E-03
 1 3 3   -0.7835687987E+00
 2 1 1   -0.1043308824E+01
 2 1 2   -0.7835687987E+00
 2 1 3   -0.7039727947E-03
 2 2 1   -0.1284370252E+01
 2 2 2    0.8671497833E+00
 2 2 3   -0.9220927459E+00
 2 3 1   -0.1034009582E+01
 2 3 2   -0.1308046422E+01
 2 3 3    0.1308046422E+01
 3 1 1    0.1043308824E+01
 3 1 2   -0.7039727947E-03
 3 1 3   -0.7835687987E+00
 3 2 1   -0.1034009582E+01
 3 2 2   -0.1308046422E+01
 3 2 3    0.1308046422E+01
 3 3 1   -0.1284370252E+01
 3 3 2    0.9220927459E+00
 3 3 3   -0.8671497833E+00
 
   38
  0.000  0.000  0.000
  0.000 -2.834  2.834
 1 1 2
 1 1 1    0.2624866251E+00
 1 1 2   -0.3648314713E+00
 1 1 3   -0.5607088018E+00
 1 2 1   -0.2032392584E+00
 1 2 2    0.2032392584E+00
 1 2 3    0.2779081070E+00
 1 3 1   -0.4996455487E+00
 1 3 2    0.9723836536E-01
 1 3 3    0.3462274486E+00
 2 1 1   -0.2032392584E+00
 2 1 2    0.2032392584E+00
 2 1 3    0.2779081070E+00
 2 2 1    0.3648314713E+00
 2 2 2   -0.2624866251E+00
 2 2 3   -0.5607088018E+00
 2 3 1    0.9723836536E-01
 2 3 2   -0.4996455487E+00
 2 3 3   -0.3462274486E+00
 3 1 1   -0.4996455487E+00
 3 1 2    0.9723836536E-01
 3 1 3    0.3462274486E+00
 3 2 1    0.9723836536E-01
 3 2 2   -0.4996455487E+00
 3 2 3   -0.3462274486E+00
 3 3 1    0.2787804510E+00
 3 3 2   -0.2787804510E+00
 3 3 3   -0.2902487393E+00
 
   39
  0.000  0.000  0.000