   0.58055E+00   0.24363E-04   0.25953E-04
   0.11611E+01   0.88342E-04   0.93977E-04
   0.17416E+01   0.25375E-03   0.26972E-03
   0.23222E+01   0.60657E-03   0.64432E-03
   0.29027E+01   0.12903E-02   0.13697E-02
   0.34833E+01   0.22841E-02   0.24227E-02
   0.40638E+01   0.29968E-02   0.31730E-02
   0.46444E+01   0.33603E-02   0.35461E-02
   0.52249E+01   0.39466E-02   0.41471E-02
   0.58055E+01   0.48429E-02   0.50587E-02
   0.63860E+01   0.66618E-02   0.69031E-02
   0.69665E+01   0.96924E-02   0.99788E-02
   0.75471E+01   0.12227E-01   0.12520E-01
   0.81276E+01   0.14432E-01   0.14676E-01
   0.87082E+01   0.17587E-01   0.17656E-01
   0.92887E+01   0.22761E-01   0.22529E-01
   0.98693E+01   0.29865E-01   0.29162E-01
   0.10450E+02   0.43240E-01   0.41580E-01
   0.11030E+02   0.71023E-01   0.67432E-01
   0.11611E+02   0.80723E-01   0.75289E-01
   0.12191E+02   0.88032E-01   0.80220E-01
   0.12772E+02   0.11525E+00   0.10250E+00
   0.13353E+02   0.12590E+00   0.10802E+00
   0.13933E+02   0.18023E+00   0.14857E+00
   0.14514E+02   0.12866E+00   0.10391E+00
   0.15094E+02   0.12932E+00   0.10147E+00
   0.15675E+02   0.11078E+00   0.86191E-01
   0.16255E+02   0.89995E-01   0.69288E-01
   0.16836E+02   0.86485E-01   0.64216E-01
   0.17416E+02   0.83441E-01   0.61237E-01
   0.17997E+02   0.77109E-01   0.57436E-01
   0.18577E+02   0.71265E-01   0.53519E-01
   0.19158E+02   0.70596E-01   0.52220E-01
   0.19739E+02   0.83004E-01   0.58826E-01
   0.20319E+02   0.91233E-01   0.63765E-01
   0.20900E+02   0.94468E-01   0.62923E-01
   0.21480E+02   0.10264E-01   0.98351E-02
   0.22061E+02   0.78901E-02   0.85570E-02
   0.22641E+02   0.86960E-02   0.94835E-02
   0.23222E+02   0.94881E-02   0.10356E-01
   0.23802E+02   0.10010E-01   0.10941E-01
   0.24383E+02   0.10592E-01   0.11593E-01
   0.24963E+02   0.11665E-01   0.12779E-01
   0.25544E+02   0.13110E-01   0.14379E-01
   0.26125E+02   0.14477E-01   0.15917E-01
   0.26705E+02   0.15610E-01   0.17235E-01
   0.27286E+02   0.16699E-01   0.18520E-01
   0.27866E+02   0.18050E-01   0.20089E-01
   0.28447E+02   0.19979E-01   0.22333E-01
   0.29027E+02   0.22654E-01   0.25499E-01
   0.29608E+02   0.24938E-01   0.28349E-01
   0.30188E+02   0.26250E-01   0.30239E-01
   0.30769E+02   0.28576E-01   0.33419E-01
   0.31349E+02   0.32260E-01   0.38390E-01
   0.31930E+02   0.37454E-01   0.45369E-01
   0.32511E+02   0.41930E-01   0.51524E-01
   0.33091E+02   0.47652E-01   0.59941E-01
   0.33672E+02   0.71796E-01   0.94637E-01
   0.34252E+02   0.45016E-01   0.64894E-01
   0.34833E+02   0.33428E-01   0.52956E-01
   0.35413E+02   0.25259E-01   0.43568E-01
   0.35994E+02   0.19403E-01   0.40326E-01
   0.36574E+02   0.15362E-01   0.38212E-01
   0.37155E+02   0.13290E-01   0.27345E-01
   0.37735E+02   0.17574E-01   0.23045E-01
   0.38316E+02   0.35410E-01   0.27294E-01
   0.38897E+02   0.51564E-01   0.39793E-01
   0.39477E+02   0.46989E-01   0.32863E-01
   0.40058E+02   0.45665E-01   0.39742E-01
   0.40638E+02   0.64283E-01   0.43386E-01
   0.41219E+02   0.74263E-01   0.51287E-01
   0.41799E+02   0.69946E-01   0.49115E-01
   0.42380E+02   0.58764E-01   0.42730E-01
   0.42960E+02   0.69395E-01   0.53670E-01
   0.43541E+02   0.62076E-01   0.48188E-01
   0.44121E+02   0.47165E-01   0.38207E-01
   0.44702E+02   0.67608E-01   0.65099E-01
   0.45283E+02   0.37884E+00   0.45864E+00
   0.45863E+02   0.27051E+00   0.30138E+00
   0.46444E+02   0.24269E+00   0.26079E+00
   0.47024E+02   0.20235E+00   0.22220E+00
   0.47605E+02   0.17922E+00   0.22988E+00
   0.48185E+02   0.24474E+00   0.33623E+00
   0.48766E+02   0.81259E-01   0.10122E+00
   0.49346E+02   0.46110E-01   0.51683E-01
   0.49927E+02   0.30565E-01   0.30478E-01
   0.50507E+02   0.30651E-01   0.29977E-01
   0.51088E+02   0.23169E-01   0.22060E-01
   0.51669E+02   0.32619E-01   0.30285E-01
   0.52249E+02   0.36556E-01   0.33448E-01
   0.52830E+02   0.55234E-02   0.49635E-02
   0.53410E+02   0.10335E-03   0.93359E-04
   0.53991E+02   0.00000E+00   0.00000E+00
   0.54571E+02   0.00000E+00   0.00000E+00
   0.55152E+02   0.00000E+00   0.00000E+00
   0.55732E+02   0.00000E+00   0.00000E+00
   0.56313E+02   0.00000E+00   0.00000E+00
   0.56893E+02   0.00000E+00   0.00000E+00
   0.57474E+02   0.00000E+00   0.00000E+00
   0.58055E+02   0.00000E+00   0.00000E+00
