 842
 
    1
  0.000  0.000  0.000
  0.000  0.000  0.000
 1 1 1
 1 1 1    0.0000000000E+00
 1 1 2    0.0000000000E+00
 1 1 3    0.0000000000E+00
 1 2 1    0.0000000000E+00
 1 2 2    0.0000000000E+00
 1 2 3    0.2346653425E+02
 1 3 1    0.0000000000E+00
 1 3 2    0.2346653425E+02
 1 3 3    0.0000000000E+00
 2 1 1    0.0000000000E+00
 2 1 2    0.0000000000E+00
 2 1 3    0.2346653425E+02
 2 2 1    0.0000000000E+00
 2 2 2    0.0000000000E+00
 2 2 3    0.0000000000E+00
 2 3 1    0.2346653425E+02
 2 3 2    0.0000000000E+00
 2 3 3    0.0000000000E+00
 3 1 1    0.0000000000E+00
 3 1 2    0.2346653425E+02
 3 1 3    0.0000000000E+00
 3 2 1    0.2346653425E+02
 3 2 2    0.0000000000E+00
 3 2 3    0.0000000000E+00
 3 3 1    0.0000000000E+00
 3 3 2    0.0000000000E+00
 3 3 3    0.0000000000E+00
 
    2
  0.000  0.000  0.000
  0.000  0.000  0.000
 1 1 2
 1 1 1   -0.1972497390E+01
 1 1 2   -0.4109993887E+01
 1 1 3   -0.4109993887E+01
 1 2 1   -0.4615193288E+01
 1 2 2   -0.4615193288E+01
 1 2 3   -0.5838812625E+01
 1 3 1   -0.4615193288E+01
 1 3 2   -0.5838812625E+01
 1 3 3   -0.4615193288E+01
 2 1 1   -0.4615193288E+01
 2 1 2   -0.4615193288E+01
 2 1 3   -0.5838812625E+01
 2 2 1   -0.4109993887E+01
 2 2 2   -0.1972497390E+01
 2 2 3   -0.4109993887E+01
 2 3 1   -0.5838812625E+01
 2 3 2   -0.4615193288E+01
 2 3 3   -0.4615193288E+01
 3 1 1   -0.4615193288E+01
 3 1 2   -0.5838812625E+01
 3 1 3   -0.4615193288E+01
 3 2 1   -0.5838812625E+01
 3 2 2   -0.4615193288E+01
 3 2 3   -0.4615193288E+01
 3 3 1   -0.4109993887E+01
 3 3 2   -0.4109993887E+01
 3 3 3   -0.1972497390E+01
 
    3
  0.000  0.000  0.000
  0.000  3.030  3.030
 1 1 1
 1 1 1    0.5857032376E-01
 1 1 2   -0.4653106755E-01
 1 1 3   -0.4653106755E-01
 1 2 1   -0.1149878213E-01
 1 2 2   -0.8551256882E-01
 1 2 3    0.1742455993E-01
 1 3 1   -0.1149878213E-01
 1 3 2    0.1742455993E-01
 1 3 3   -0.8551256882E-01
 2 1 1   -0.1149878213E-01
 2 1 2   -0.8551256882E-01
 2 1 3    0.1742455993E-01
 2 2 1   -0.1452455519E+00
 2 2 2   -0.1621487915E+00
 2 2 3   -0.1329997017E+00
 2 3 1   -0.8416275687E-01
 2 3 2   -0.1800824969E+00
 2 3 3   -0.1800824969E+00
 3 1 1   -0.1149878213E-01
 3 1 2    0.1742455993E-01
 3 1 3   -0.8551256882E-01
 3 2 1   -0.8416275687E-01
 3 2 2   -0.1800824969E+00
 3 2 3   -0.1800824969E+00
 3 3 1   -0.1452455519E+00
 3 3 2   -0.1329997017E+00
 3 3 3   -0.1621487915E+00
 
    4
  0.000  0.000  0.000
  0.000 -3.030 -3.030
 1 1 1
 1 1 1    0.5857032376E-01
 1 1 2    0.4653106755E-01
 1 1 3    0.4653106755E-01
 1 2 1    0.1149878213E-01
 1 2 2   -0.8551256882E-01
 1 2 3    0.1742455993E-01
 1 3 1    0.1149878213E-01
 1 3 2    0.1742455993E-01
 1 3 3   -0.8551256882E-01
 2 1 1    0.1149878213E-01
 2 1 2   -0.8551256882E-01
 2 1 3    0.1742455993E-01
 2 2 1   -0.1452455519E+00
 2 2 2    0.1621487915E+00
 2 2 3    0.1329997017E+00
 2 3 1   -0.8416275687E-01
 2 3 2    0.1800824969E+00
 2 3 3    0.1800824969E+00
 3 1 1    0.1149878213E-01
 3 1 2    0.1742455993E-01
 3 1 3   -0.8551256882E-01
 3 2 1   -0.8416275687E-01
 3 2 2    0.1800824969E+00
 3 2 3    0.1800824969E+00
 3 3 1   -0.1452455519E+00
 3 3 2    0.1329997017E+00
 3 3 3    0.1621487915E+00
 
    5
  0.000  0.000  0.000
  0.000 -3.030 -3.030
 1 1 2
 1 1 1   -0.1972497390E+01
 1 1 2    0.4109993887E+01
 1 1 3    0.4109993887E+01
 1 2 1    0.4615193288E+01
 1 2 2   -0.4615193288E+01
 1 2 3   -0.5838812625E+01
 1 3 1    0.4615193288E+01
 1 3 2   -0.5838812625E+01
 1 3 3   -0.4615193288E+01
 2 1 1    0.4615193288E+01
 2 1 2   -0.4615193288E+01
 2 1 3   -0.5838812625E+01
 2 2 1   -0.4109993887E+01
 2 2 2    0.1972497390E+01
 2 2 3    0.4109993887E+01
 2 3 1   -0.5838812625E+01
 2 3 2    0.4615193288E+01
 2 3 3    0.4615193288E+01
 3 1 1    0.4615193288E+01
 3 1 2   -0.5838812625E+01
 3 1 3   -0.4615193288E+01
 3 2 1   -0.5838812625E+01
 3 2 2    0.4615193288E+01
 3 2 3    0.4615193288E+01
 3 3 1   -0.4109993887E+01
 3 3 2    0.4109993887E+01
 3 3 3    0.1972497390E+01
 
    6
  0.000  0.000  0.000
  3.030  0.000  3.030
 1 1 1
 1 1 1   -0.1621487915E+00
 1 1 2   -0.1452455519E+00
 1 1 3   -0.1329997017E+00
 1 2 1   -0.8551256882E-01
 1 2 2   -0.1149878213E-01
 1 2 3    0.1742455993E-01
 1 3 1   -0.1800824969E+00
 1 3 2   -0.8416275687E-01
 1 3 3   -0.1800824969E+00
 2 1 1   -0.8551256882E-01
 2 1 2   -0.1149878213E-01
 2 1 3    0.1742455993E-01
 2 2 1   -0.4653106755E-01
 2 2 2    0.5857032376E-01
 2 2 3   -0.4653106755E-01
 2 3 1    0.1742455993E-01
 2 3 2   -0.1149878213E-01
 2 3 3   -0.8551256882E-01
 3 1 1   -0.1800824969E+00
 3 1 2   -0.8416275687E-01
 3 1 3   -0.1800824969E+00
 3 2 1    0.1742455993E-01
 3 2 2   -0.1149878213E-01
 3 2 3   -0.8551256882E-01
 3 3 1   -0.1329997017E+00
 3 3 2   -0.1452455519E+00
 3 3 3   -0.1621487915E+00
 
    7
  0.000  0.000  0.000
  3.030 -3.030  0.000
 1 1 1
 1 1 1   -0.1621487915E+00
 1 1 2    0.1329997017E+00
 1 1 3    0.1452455519E+00
 1 2 1    0.1800824969E+00
 1 2 2   -0.1800824969E+00
 1 2 3   -0.8416275687E-01
 1 3 1    0.8551256882E-01
 1 3 2    0.1742455993E-01
 1 3 3   -0.1149878213E-01
 2 1 1    0.1800824969E+00
 2 1 2   -0.1800824969E+00
 2 1 3   -0.8416275687E-01
 2 2 1   -0.1329997017E+00
 2 2 2    0.1621487915E+00
 2 2 3    0.1452455519E+00
 2 3 1    0.1742455993E-01
 2 3 2    0.8551256882E-01
 2 3 3    0.1149878213E-01
 3 1 1    0.8551256882E-01
 3 1 2    0.1742455993E-01
 3 1 3   -0.1149878213E-01
 3 2 1    0.1742455993E-01
 3 2 2    0.8551256882E-01
 3 2 3    0.1149878213E-01
 3 3 1   -0.4653106755E-01
 3 3 2    0.4653106755E-01
 3 3 3   -0.5857032376E-01
 
    8
  0.000  0.000  0.000
  3.030 -3.030  0.000
 1 1 2
 1 1 1    0.4046006545E-01
 1 1 2   -0.1840150733E-01
 1 1 3    0.1840150733E-01
 1 2 1   -0.8048066483E-02
 1 2 2    0.1000225607E-01
 1 2 3   -0.6465463249E-02
 1 3 1    0.8048066483E-02
 1 3 2   -0.6465463249E-02
 1 3 3    0.1000225607E-01
 2 1 1   -0.8048066483E-02
 2 1 2    0.1000225607E-01
 2 1 3   -0.6465463249E-02
 2 2 1    0.2986733298E-01
 2 2 2   -0.3416583985E-01
 2 2 3    0.2757065225E-01
 2 3 1    0.3442362483E-01
 2 3 2   -0.5206684192E-01
 2 3 3    0.5206684192E-01
 3 1 1    0.8048066483E-02
 3 1 2   -0.6465463249E-02
 3 1 3    0.1000225607E-01
 3 2 1    0.3442362483E-01
 3 2 2   -0.5206684192E-01
 3 2 3    0.5206684192E-01
 3 3 1    0.2986733298E-01
 3 3 2   -0.2757065225E-01
 3 3 3    0.3416583985E-01
 
    9
  0.000  0.000  0.000
 -3.030  0.000 -3.030
 1 1 1
 1 1 1    0.1621487915E+00
 1 1 2   -0.1452455519E+00
 1 1 3    0.1329997017E+00
 1 2 1   -0.8551256882E-01
 1 2 2    0.1149878213E-01
 1 2 3    0.1742455993E-01
 1 3 1    0.1800824969E+00
 1 3 2   -0.8416275687E-01
 1 3 3    0.1800824969E+00
 2 1 1   -0.8551256882E-01
 2 1 2    0.1149878213E-01
 2 1 3    0.1742455993E-01
 2 2 1    0.4653106755E-01
 2 2 2    0.5857032376E-01
 2 2 3    0.4653106755E-01
 2 3 1    0.1742455993E-01
 2 3 2    0.1149878213E-01
 2 3 3   -0.8551256882E-01
 3 1 1    0.1800824969E+00
 3 1 2   -0.8416275687E-01
 3 1 3    0.1800824969E+00
 3 2 1    0.1742455993E-01
 3 2 2    0.1149878213E-01
 3 2 3   -0.8551256882E-01
 3 3 1    0.1329997017E+00
 3 3 2   -0.1452455519E+00
 3 3 3    0.1621487915E+00
 
   10
  0.000  0.000  0.000
 -3.030  0.000 -3.030
 1 1 2
 1 1 1    0.1972497390E+01
 1 1 2   -0.4109993887E+01
 1 1 3    0.4109993887E+01
 1 2 1   -0.4615193288E+01
 1 2 2    0.4615193288E+01
 1 2 3   -0.5838812625E+01
 1 3 1    0.4615193288E+01
 1 3 2   -0.5838812625E+01
 1 3 3    0.4615193288E+01
 2 1 1   -0.4615193288E+01
 2 1 2    0.4615193288E+01
 2 1 3   -0.5838812625E+01
 2 2 1    0.4109993887E+01
 2 2 2   -0.1972497390E+01
 2 2 3    0.4109993887E+01
 2 3 1   -0.5838812625E+01
 2 3 2    0.4615193288E+01
 2 3 3   -0.4615193288E+01
 3 1 1    0.4615193288E+01
 3 1 2   -0.5838812625E+01
 3 1 3    0.4615193288E+01
 3 2 1   -0.5838812625E+01
 3 2 2    0.4615193288E+01
 3 2 3   -0.4615193288E+01
 3 3 1    0.4109993887E+01
 3 3 2   -0.4109993887E+01
 3 3 3    0.1972497390E+01
 
   11
  0.000  0.000  0.000
 -3.030  3.030  0.000
 1 1 1
 1 1 1    0.1621487915E+00
 1 1 2   -0.1329997017E+00
 1 1 3    0.1452455519E+00
 1 2 1   -0.1800824969E+00
 1 2 2    0.1800824969E+00
 1 2 3   -0.8416275687E-01
 1 3 1    0.8551256882E-01
 1 3 2    0.1742455993E-01
 1 3 3    0.1149878213E-01
 2 1 1   -0.1800824969E+00
 2 1 2    0.1800824969E+00
 2 1 3   -0.8416275687E-01
 2 2 1    0.1329997017E+00
 2 2 2   -0.1621487915E+00
 2 2 3    0.1452455519E+00
 2 3 1    0.1742455993E-01
 2 3 2    0.8551256882E-01
 2 3 3   -0.1149878213E-01
 3 1 1    0.8551256882E-01
 3 1 2    0.1742455993E-01
 3 1 3    0.1149878213E-01
 3 2 1    0.1742455993E-01
 3 2 2    0.8551256882E-01
 3 2 3   -0.1149878213E-01
 3 3 1    0.4653106755E-01
 3 3 2   -0.4653106755E-01
 3 3 3   -0.5857032376E-01
 
   12
  0.000  0.000  0.000
 -3.030  3.030  0.000
 1 1 2
 1 1 1   -0.3416583985E-01
 1 1 2    0.2986733298E-01
 1 1 3    0.2757065225E-01
 1 2 1    0.1000225607E-01
 1 2 2   -0.8048066483E-02
 1 2 3   -0.6465463249E-02
 1 3 1   -0.5206684192E-01
 1 3 2    0.3442362483E-01
 1 3 3    0.5206684192E-01
 2 1 1    0.1000225607E-01
 2 1 2   -0.8048066483E-02
 2 1 3   -0.6465463249E-02
 2 2 1   -0.1840150733E-01
 2 2 2    0.4046006545E-01
 2 2 3    0.1840150733E-01
 2 3 1   -0.6465463249E-02
 2 3 2    0.8048066483E-02
 2 3 3    0.1000225607E-01
 3 1 1   -0.5206684192E-01
 3 1 2    0.3442362483E-01
 3 1 3    0.5206684192E-01
 3 2 1   -0.6465463249E-02
 3 2 2    0.8048066483E-02
 3 2 3    0.1000225607E-01
 3 3 1   -0.2757065225E-01
 3 3 2    0.2986733298E-01
 3 3 3    0.3416583985E-01
 
   13
  0.000  0.000  0.000
 -3.030 -3.030 -6.059
 1 1 2
 1 1 1   -0.3416583985E-01
 1 1 2   -0.2757065225E-01
 1 1 3   -0.2986733298E-01
 1 2 1    0.5206684192E-01
 1 2 2    0.5206684192E-01
 1 2 3    0.3442362483E-01
 1 3 1   -0.1000225607E-01
 1 3 2   -0.6465463249E-02
 1 3 3   -0.8048066483E-02
 2 1 1    0.5206684192E-01
 2 1 2    0.5206684192E-01
 2 1 3    0.3442362483E-01
 2 2 1   -0.2757065225E-01
 2 2 2   -0.3416583985E-01
 2 2 3   -0.2986733298E-01
 2 3 1   -0.6465463249E-02
 2 3 2   -0.1000225607E-01
 2 3 3   -0.8048066483E-02
 3 1 1   -0.1000225607E-01
 3 1 2   -0.6465463249E-02
 3 1 3   -0.8048066483E-02
 3 2 1   -0.6465463249E-02
 3 2 2   -0.1000225607E-01
 3 2 3   -0.8048066483E-02
 3 3 1   -0.1840150733E-01
 3 3 2   -0.1840150733E-01
 3 3 3   -0.4046006545E-01
 
   14
  0.000  0.000  0.000
  3.030  3.030  0.000
 1 1 1
 1 1 1   -0.1621487915E+00
 1 1 2   -0.1329997017E+00
 1 1 3   -0.1452455519E+00
 1 2 1   -0.1800824969E+00
 1 2 2   -0.1800824969E+00
 1 2 3   -0.8416275687E-01
 1 3 1   -0.8551256882E-01
 1 3 2    0.1742455993E-01
 1 3 3   -0.1149878213E-01
 2 1 1   -0.1800824969E+00
 2 1 2   -0.1800824969E+00
 2 1 3   -0.8416275687E-01
 2 2 1   -0.1329997017E+00
 2 2 2   -0.1621487915E+00
 2 2 3   -0.1452455519E+00
 2 3 1    0.1742455993E-01
 2 3 2   -0.8551256882E-01
 2 3 3   -0.1149878213E-01
 3 1 1   -0.8551256882E-01
 3 1 2    0.1742455993E-01
 3 1 3   -0.1149878213E-01
 3 2 1    0.1742455993E-01
 3 2 2   -0.8551256882E-01
 3 2 3   -0.1149878213E-01
 3 3 1   -0.4653106755E-01
 3 3 2   -0.4653106755E-01
 3 3 3    0.5857032376E-01
 
   15
  0.000  0.000  0.000
  3.030  0.000 -3.030
 1 1 1
 1 1 1   -0.1621487915E+00
 1 1 2    0.1452455519E+00
 1 1 3    0.1329997017E+00
 1 2 1    0.8551256882E-01
 1 2 2   -0.1149878213E-01
 1 2 3    0.1742455993E-01
 1 3 1    0.1800824969E+00
 1 3 2   -0.8416275687E-01
 1 3 3   -0.1800824969E+00
 2 1 1    0.8551256882E-01
 2 1 2   -0.1149878213E-01
 2 1 3    0.1742455993E-01
 2 2 1   -0.4653106755E-01
 2 2 2   -0.5857032376E-01
 2 2 3    0.4653106755E-01
 2 3 1    0.1742455993E-01
 2 3 2    0.1149878213E-01
 2 3 3    0.8551256882E-01
 3 1 1    0.1800824969E+00
 3 1 2   -0.8416275687E-01
 3 1 3   -0.1800824969E+00
 3 2 1    0.1742455993E-01
 3 2 2    0.1149878213E-01
 3 2 3    0.8551256882E-01
 3 3 1   -0.1329997017E+00
 3 3 2    0.1452455519E+00
 3 3 3    0.1621487915E+00
 
   16
  0.000  0.000  0.000
  3.030  0.000 -3.030
 1 1 2
 1 1 1    0.4046006545E-01
 1 1 2    0.1840150733E-01
 1 1 3   -0.1840150733E-01
 1 2 1    0.8048066483E-02
 1 2 2    0.1000225607E-01
 1 2 3   -0.6465463249E-02
 1 3 1   -0.8048066483E-02
 1 3 2   -0.6465463249E-02
 1 3 3    0.1000225607E-01
 2 1 1    0.8048066483E-02
 2 1 2    0.1000225607E-01
 2 1 3   -0.6465463249E-02
 2 2 1    0.2986733298E-01
 2 2 2    0.3416583985E-01
 2 2 3   -0.2757065225E-01
 2 3 1    0.3442362483E-01
 2 3 2    0.5206684192E-01
 2 3 3   -0.5206684192E-01
 3 1 1   -0.8048066483E-02
 3 1 2   -0.6465463249E-02
 3 1 3    0.1000225607E-01
 3 2 1    0.3442362483E-01
 3 2 2    0.5206684192E-01
 3 2 3   -0.5206684192E-01
 3 3 1    0.2986733298E-01
 3 3 2    0.2757065225E-01
 3 3 3   -0.3416583985E-01
 
   17
  0.000  0.000  0.000
  0.000  3.030 -3.030
 1 1 1
 1 1 1   -0.5857032376E-01
 1 1 2   -0.4653106755E-01
 1 1 3    0.4653106755E-01
 1 2 1   -0.1149878213E-01
 1 2 2    0.8551256882E-01
 1 2 3    0.1742455993E-01
 1 3 1    0.1149878213E-01
 1 3 2    0.1742455993E-01
 1 3 3    0.8551256882E-01
 2 1 1   -0.1149878213E-01
 2 1 2    0.8551256882E-01
 2 1 3    0.1742455993E-01
 2 2 1    0.1452455519E+00
 2 2 2   -0.1621487915E+00
 2 2 3    0.1329997017E+00
 2 3 1   -0.8416275687E-01
 2 3 2    0.1800824969E+00
 2 3 3   -0.1800824969E+00
 3 1 1    0.1149878213E-01
 3 1 2    0.1742455993E-01
 3 1 3    0.8551256882E-01
 3 2 1   -0.8416275687E-01
 3 2 2    0.1800824969E+00
 3 2 3   -0.1800824969E+00
 3 3 1    0.1452455519E+00
 3 3 2   -0.1329997017E+00
 3 3 3    0.1621487915E+00
 
   18
  0.000  0.000  0.000
  0.000  3.030 -3.030
 1 1 2
 1 1 1    0.3416583985E-01
 1 1 2    0.2986733298E-01
 1 1 3   -0.2757065225E-01
 1 2 1    0.1000225607E-01
 1 2 2    0.8048066483E-02
 1 2 3   -0.6465463249E-02
 1 3 1    0.5206684192E-01
 1 3 2    0.3442362483E-01
 1 3 3   -0.5206684192E-01
 2 1 1    0.1000225607E-01
 2 1 2    0.8048066483E-02
 2 1 3   -0.6465463249E-02
 2 2 1    0.1840150733E-01
 2 2 2    0.4046006545E-01
 2 2 3   -0.1840150733E-01
 2 3 1   -0.6465463249E-02
 2 3 2   -0.8048066483E-02
 2 3 3    0.1000225607E-01
 3 1 1    0.5206684192E-01
 3 1 2    0.3442362483E-01
 3 1 3   -0.5206684192E-01
 3 2 1   -0.6465463249E-02
 3 2 2   -0.8048066483E-02
 3 2 3    0.1000225607E-01
 3 3 1    0.2757065225E-01
 3 3 2    0.2986733298E-01
 3 3 3   -0.3416583985E-01
 
   19
  0.000  0.000  0.000
  0.000  0.000 -6.059
 1 1 2
 1 1 1    0.3416583985E-01
 1 1 2    0.2757065225E-01
 1 1 3   -0.2986733298E-01
 1 2 1   -0.5206684192E-01
 1 2 2   -0.5206684192E-01
 1 2 3    0.3442362483E-01
 1 3 1   -0.1000225607E-01
 1 3 2   -0.6465463249E-02
 1 3 3    0.8048066483E-02
 2 1 1   -0.5206684192E-01
 2 1 2   -0.5206684192E-01
 2 1 3    0.3442362483E-01
 2 2 1    0.2757065225E-01
 2 2 2    0.3416583985E-01
 2 2 3   -0.2986733298E-01
 2 3 1   -0.6465463249E-02
 2 3 2   -0.1000225607E-01
 2 3 3    0.8048066483E-02
 3 1 1   -0.1000225607E-01
 3 1 2   -0.6465463249E-02
 3 1 3    0.8048066483E-02
 3 2 1   -0.6465463249E-02
 3 2 2   -0.1000225607E-01
 3 2 3    0.8048066483E-02
 3 3 1    0.1840150733E-01
 3 3 2    0.1840150733E-01
 3 3 3   -0.4046006545E-01
 
   20
  0.000  0.000  0.000
 -3.030 -3.030  0.000
 1 1 1
 1 1 1    0.1621487915E+00
 1 1 2    0.1329997017E+00
 1 1 3   -0.1452455519E+00
 1 2 1    0.1800824969E+00
 1 2 2    0.1800824969E+00
 1 2 3   -0.8416275687E-01
 1 3 1   -0.8551256882E-01
 1 3 2    0.1742455993E-01
 1 3 3    0.1149878213E-01
 2 1 1    0.1800824969E+00
 2 1 2    0.1800824969E+00
 2 1 3   -0.8416275687E-01
 2 2 1    0.1329997017E+00
 2 2 2    0.1621487915E+00
 2 2 3   -0.1452455519E+00
 2 3 1    0.1742455993E-01
 2 3 2   -0.8551256882E-01
 2 3 3    0.1149878213E-01
 3 1 1   -0.8551256882E-01
 3 1 2    0.1742455993E-01
 3 1 3    0.1149878213E-01
 3 2 1    0.1742455993E-01
 3 2 2   -0.8551256882E-01
 3 2 3    0.1149878213E-01
 3 3 1    0.4653106755E-01
 3 3 2    0.4653106755E-01
 3 3 3    0.5857032376E-01
 
   21
  0.000  0.000  0.000
 -3.030 -3.030  0.000
 1 1 2
 1 1 1    0.1972497390E+01
 1 1 2    0.4109993887E+01
 1 1 3   -0.4109993887E+01
 1 2 1    0.4615193288E+01
 1 2 2    0.4615193288E+01
 1 2 3   -0.5838812625E+01
 1 3 1   -0.4615193288E+01
 1 3 2   -0.5838812625E+01
 1 3 3    0.4615193288E+01
 2 1 1    0.4615193288E+01
 2 1 2    0.4615193288E+01
 2 1 3   -0.5838812625E+01
 2 2 1    0.4109993887E+01
 2 2 2    0.1972497390E+01
 2 2 3   -0.4109993887E+01
 2 3 1   -0.5838812625E+01
 2 3 2   -0.4615193288E+01
 2 3 3    0.4615193288E+01
 3 1 1   -0.4615193288E+01
 3 1 2   -0.5838812625E+01
 3 1 3    0.4615193288E+01
 3 2 1   -0.5838812625E+01
 3 2 2   -0.4615193288E+01
 3 2 3    0.4615193288E+01
 3 3 1    0.4109993887E+01
 3 3 2    0.4109993887E+01
 3 3 3   -0.1972497390E+01
 
   22
  0.000  0.000  0.000
 -3.030  0.000  3.030
 1 1 1
 1 1 1    0.1621487915E+00
 1 1 2    0.1452455519E+00
 1 1 3   -0.1329997017E+00
 1 2 1    0.8551256882E-01
 1 2 2    0.1149878213E-01
 1 2 3    0.1742455993E-01
 1 3 1   -0.1800824969E+00
 1 3 2   -0.8416275687E-01
 1 3 3    0.1800824969E+00
 2 1 1    0.8551256882E-01
 2 1 2    0.1149878213E-01
 2 1 3    0.1742455993E-01
 2 2 1    0.4653106755E-01
 2 2 2   -0.5857032376E-01
 2 2 3   -0.4653106755E-01
 2 3 1    0.1742455993E-01
 2 3 2   -0.1149878213E-01
 2 3 3    0.8551256882E-01
 3 1 1   -0.1800824969E+00
 3 1 2   -0.8416275687E-01
 3 1 3    0.1800824969E+00
 3 2 1    0.1742455993E-01
 3 2 2   -0.1149878213E-01
 3 2 3    0.8551256882E-01
 3 3 1    0.1329997017E+00
 3 3 2    0.1452455519E+00
 3 3 3   -0.1621487915E+00
 
   23
  0.000  0.000  0.000
 -3.030  0.000  3.030
 1 1 2
 1 1 1   -0.3416583985E-01
 1 1 2    0.2757065225E-01
 1 1 3    0.2986733298E-01
 1 2 1   -0.5206684192E-01
 1 2 2    0.5206684192E-01
 1 2 3    0.3442362483E-01
 1 3 1    0.1000225607E-01
 1 3 2   -0.6465463249E-02
 1 3 3   -0.8048066483E-02
 2 1 1   -0.5206684192E-01
 2 1 2    0.5206684192E-01
 2 1 3    0.3442362483E-01
 2 2 1   -0.2757065225E-01
 2 2 2    0.3416583985E-01
 2 2 3    0.2986733298E-01
 2 3 1   -0.6465463249E-02
 2 3 2    0.1000225607E-01
 2 3 3    0.8048066483E-02
 3 1 1    0.1000225607E-01
 3 1 2   -0.6465463249E-02
 3 1 3   -0.8048066483E-02
 3 2 1   -0.6465463249E-02
 3 2 2    0.1000225607E-01
 3 2 3    0.8048066483E-02
 3 3 1   -0.1840150733E-01
 3 3 2    0.1840150733E-01
 3 3 3    0.4046006545E-01
 
   24
  0.000  0.000  0.000
 -3.030 -6.059 -3.030
 1 1 2
 1 1 1   -0.3416583985E-01
 1 1 2   -0.2986733298E-01
 1 1 3   -0.2757065225E-01
 1 2 1   -0.1000225607E-01
 1 2 2   -0.8048066483E-02
 1 2 3   -0.6465463249E-02
 1 3 1    0.5206684192E-01
 1 3 2    0.3442362483E-01
 1 3 3    0.5206684192E-01
 2 1 1   -0.1000225607E-01
 2 1 2   -0.8048066483E-02
 2 1 3   -0.6465463249E-02
 2 2 1   -0.1840150733E-01
 2 2 2   -0.4046006545E-01
 2 2 3   -0.1840150733E-01
 2 3 1   -0.6465463249E-02
 2 3 2   -0.8048066483E-02
 2 3 3   -0.1000225607E-01
 3 1 1    0.5206684192E-01
 3 1 2    0.3442362483E-01
 3 1 3    0.5206684192E-01
 3 2 1   -0.6465463249E-02
 3 2 2   -0.8048066483E-02
 3 2 3   -0.1000225607E-01
 3 3 1   -0.2757065225E-01
 3 3 2   -0.2986733298E-01
 3 3 3   -0.3416583985E-01
 
   25
  0.000  0.000  0.000
  0.000 -3.030  3.030
 1 1 1
 1 1 1   -0.5857032376E-01
 1 1 2    0.4653106755E-01
 1 1 3   -0.4653106755E-01
 1 2 1    0.1149878213E-01
 1 2 2    0.8551256882E-01
 1 2 3    0.1742455993E-01
 1 3 1   -0.1149878213E-01
 1 3 2    0.1742455993E-01
 1 3 3    0.8551256882E-01
 2 1 1    0.1149878213E-01
 2 1 2    0.8551256882E-01
 2 1 3    0.1742455993E-01
 2 2 1    0.1452455519E+00
 2 2 2    0.1621487915E+00
 2 2 3   -0.1329997017E+00
 2 3 1   -0.8416275687E-01
 2 3 2   -0.1800824969E+00
 2 3 3    0.1800824969E+00
 3 1 1   -0.1149878213E-01
 3 1 2    0.1742455993E-01
 3 1 3    0.8551256882E-01
 3 2 1   -0.8416275687E-01
 3 2 2   -0.1800824969E+00
 3 2 3    0.1800824969E+00
 3 3 1    0.1452455519E+00
 3 3 2    0.1329997017E+00
 3 3 3   -0.1621487915E+00
 
   26
  0.000  0.000  0.000
  0.000 -3.030  3.030
 1 1 2
 1 1 1    0.3416583985E-01
 1 1 2   -0.2757065225E-01
 1 1 3    0.2986733298E-01
 1 2 1    0.5206684192E-01
 1 2 2   -0.5206684192E-01
 1 2 3    0.3442362483E-01
 1 3 1    0.1000225607E-01
 1 3 2   -0.6465463249E-02
 1 3 3    0.8048066483E-02
 2 1 1    0.5206684192E-01
 2 1 2   -0.5206684192E-01
 2 1 3    0.3442362483E-01
 2 2 1    0.2757065225E-01
 2 2 2   -0.3416583985E-01
 2 2 3    0.2986733298E-01
 2 3 1   -0.6465463249E-02
 2 3 2    0.1000225607E-01
 2 3 3   -0.8048066483E-02
 3 1 1    0.1000225607E-01
 3 1 2   -0.6465463249E-02
 3 1 3    0.8048066483E-02
 3 2 1   -0.6465463249E-02
 3 2 2    0.1000225607E-01
 3 2 3   -0.8048066483E-02
 3 3 1    0.1840150733E-01
 3 3 2   -0.1840150733E-01
 3 3 3    0.4046006545E-01
 
   27
  0.000  0.000  0.000
  0.000 -6.059  0.000
 1 1 2
 1 1 1    0.3416583985E-01
 1 1 2   -0.2986733298E-01
 1 1 3    0.2757065225E-01
 1 2 1   -0.1000225607E-01
 1 2 2    0.8048066483E-02
 1 2 3   -0.6465463249E-02
 1 3 1   -0.5206684192E-01
 1 3 2    0.3442362483E-01
 1 3 3   -0.5206684192E-01
 2 1 1   -0.1000225607E-01
 2 1 2    0.8048066483E-02
 2 1 3   -0.6465463249E-02
 2 2 1    0.1840150733E-01
 2 2 2   -0.4046006545E-01
 2 2 3    0.1840150733E-01
 2 3 1   -0.6465463249E-02
 2 3 2    0.8048066483E-02
 2 3 3   -0.1000225607E-01
 3 1 1   -0.5206684192E-01
 3 1 2    0.3442362483E-01
 3 1 3   -0.5206684192E-01
 3 2 1   -0.6465463249E-02
 3 2 2    0.8048066483E-02
 3 2 3   -0.1000225607E-01
 3 3 1    0.2757065225E-01
 3 3 2   -0.2986733298E-01
 3 3 3    0.3416583985E-01
 
   28
  0.000  0.000  0.000
 -6.059 -3.030 -3.030
 1 1 2
 1 1 1   -0.4046006545E-01
 1 1 2   -0.1840150733E-01
 1 1 3   -0.1840150733E-01
 1 2 1   -0.8048066483E-02
 1 2 2   -0.1000225607E-01
 1 2 3   -0.6465463249E-02
 1 3 1   -0.8048066483E-02
 1 3 2   -0.6465463249E-02
 1 3 3   -0.1000225607E-01
 2 1 1   -0.8048066483E-02
 2 1 2   -0.1000225607E-01
 2 1 3   -0.6465463249E-02
 2 2 1   -0.2986733298E-01
 2 2 2   -0.3416583985E-01
 2 2 3   -0.2757065225E-01
 2 3 1    0.3442362483E-01
 2 3 2    0.5206684192E-01
 2 3 3    0.5206684192E-01
 3 1 1   -0.8048066483E-02
 3 1 2   -0.6465463249E-02
 3 1 3   -0.1000225607E-01
 3 2 1    0.3442362483E-01
 3 2 2    0.5206684192E-01
 3 2 3    0.5206684192E-01
 3 3 1   -0.2986733298E-01
 3 3 2   -0.2757065225E-01
 3 3 3   -0.3416583985E-01
 
   29
  0.000  0.000  0.000
 -6.059  0.000  0.000
 1 1 2
 1 1 1   -0.4046006545E-01
 1 1 2    0.1840150733E-01
 1 1 3    0.1840150733E-01
 1 2 1    0.8048066483E-02
 1 2 2   -0.1000225607E-01
 1 2 3   -0.6465463249E-02
 1 3 1    0.8048066483E-02
 1 3 2   -0.6465463249E-02
 1 3 3   -0.1000225607E-01
 2 1 1    0.8048066483E-02
 2 1 2   -0.1000225607E-01
 2 1 3   -0.6465463249E-02
 2 2 1   -0.2986733298E-01
 2 2 2    0.3416583985E-01
 2 2 3    0.2757065225E-01
 2 3 1    0.3442362483E-01
 2 3 2   -0.5206684192E-01
 2 3 3   -0.5206684192E-01
 3 1 1    0.8048066483E-02
 3 1 2   -0.6465463249E-02
 3 1 3   -0.1000225607E-01
 3 2 1    0.3442362483E-01
 3 2 2   -0.5206684192E-01
 3 2 3   -0.5206684192E-01
 3 3 1   -0.2986733298E-01
 3 3 2    0.2757065225E-01
 3 3 3    0.3416583985E-01
 
   30
  0.000  0.000  0.000
  0.000  0.000  0.000
 1 2 1
 1 1 1   -0.1972497390E+01
 1 1 2   -0.4615193288E+01
 1 1 3   -0.4615193288E+01
 1 2 1   -0.4109993887E+01
 1 2 2   -0.4615193288E+01
 1 2 3   -0.5838812625E+01
 1 3 1   -0.4109993887E+01
 1 3 2   -0.5838812625E+01
 1 3 3   -0.4615193288E+01
 2 1 1   -0.4615193288E+01
 2 1 2   -0.4109993887E+01
 2 1 3   -0.5838812625E+01
 2 2 1   -0.4615193288E+01
 2 2 2   -0.1972497390E+01
 2 2 3   -0.4615193288E+01
 2 3 1   -0.5838812625E+01
 2 3 2   -0.4109993887E+01
 2 3 3   -0.4615193288E+01
 3 1 1   -0.4615193288E+01
 3 1 2   -0.5838812625E+01
 3 1 3   -0.4109993887E+01
 3 2 1   -0.5838812625E+01
 3 2 2   -0.4615193288E+01
 3 2 3   -0.4109993887E+01
 3 3 1   -0.4615193288E+01
 3 3 2   -0.4615193288E+01
 3 3 3   -0.1972497390E+01
 
   31
  0.000  0.000  0.000
  0.000  0.000  0.000
 1 2 2
 1 1 1    0.2103876358E+01
 1 1 2    0.4207014985E+01
 1 1 3    0.4207014985E+01
 1 2 1    0.4207014985E+01
 1 2 2    0.4456107509E+01
 1 2 3    0.5975502474E+01
 1 3 1    0.4207014985E+01
 1 3 2    0.5975502474E+01
 1 3 3    0.4456107509E+01
 2 1 1    0.4456107509E+01
 2 1 2    0.4207014985E+01
 2 1 3    0.5975502474E+01
 2 2 1    0.4207014985E+01
 2 2 2    0.2103876358E+01
 2 2 3    0.4207014985E+01
 2 3 1    0.5975502474E+01
 2 3 2    0.4207014985E+01
 2 3 3    0.4456107509E+01
 3 1 1    0.4456107509E+01
 3 1 2    0.5975502474E+01
 3 1 3    0.4207014985E+01
 3 2 1    0.5975502474E+01
 3 2 2    0.4456107509E+01
 3 2 3    0.4207014985E+01
 3 3 1    0.4207014985E+01
 3 3 2    0.4207014985E+01
 3 3 3    0.2103876358E+01
 
   32
  0.000  0.000  0.000
  0.000  3.030  3.030
 1 2 1
 1 1 1   -0.7498585668E-01
 1 1 2    0.1386152524E-01
 1 1 3    0.1386152524E-01
 1 2 1    0.0000000000E+00
 1 2 2    0.2258875895E+00
 1 2 3   -0.2234694559E-02
 1 3 1    0.0000000000E+00
 1 3 2   -0.2234694559E-02
 1 3 3    0.2258875895E+00
 2 1 1   -0.1386152524E-01
 2 1 2    0.6727712072E-01
 2 1 3   -0.1405849009E+00
 2 2 1    0.2258875895E+00
 2 2 2    0.0000000000E+00
 2 2 3   -0.6468380251E-01
 2 3 1   -0.2234694559E-02
 2 3 2    0.0000000000E+00
 2 3 3    0.6468380251E-01
 3 1 1   -0.1386152524E-01
 3 1 2   -0.1405849009E+00
 3 1 3    0.6727712072E-01
 3 2 1   -0.2234694559E-02
 3 2 2    0.6468380251E-01
 3 2 3    0.0000000000E+00
 3 3 1    0.2258875895E+00
 3 3 2   -0.6468380251E-01
 3 3 3    0.0000000000E+00
 
   33
  0.000  0.000  0.000
  0.000 -3.030 -3.030
 1 2 2
 1 1 1   -0.1284337115E+00
 1 1 2    0.2300851950E+00
 1 1 3    0.2300851950E+00
 1 2 1   -0.2300851950E+00
 1 2 2   -0.4579247851E-01
 1 2 3   -0.5759807273E-01
 1 3 1   -0.2300851950E+00
 1 3 2   -0.5759807273E-01
 1 3 3   -0.4579247851E-01
 2 1 1    0.0000000000E+00
 2 1 2    0.4504733563E-01
 2 1 3    0.2808641571E-01
 2 2 1    0.4504733563E-01
 2 2 2    0.0000000000E+00
 2 2 3    0.2111712361E-01
 2 3 1    0.2808641571E-01
 2 3 2   -0.2111712361E-01
 2 3 3    0.0000000000E+00
 3 1 1    0.0000000000E+00
 3 1 2    0.2808641571E-01
 3 1 3    0.4504733563E-01
 3 2 1    0.2808641571E-01
 3 2 2    0.0000000000E+00
 3 2 3   -0.2111712361E-01
 3 3 1    0.4504733563E-01
 3 3 2    0.2111712361E-01
 3 3 3    0.0000000000E+00
 
   34
  0.000  0.000  0.000
  3.030  0.000  3.030
 1 2 1
 1 1 1    0.0000000000E+00
 1 1 2    0.2258875895E+00
 1 1 3   -0.6468380251E-01
 1 2 1    0.6727712072E-01
 1 2 2   -0.1386152524E-01
 1 2 3   -0.1405849009E+00
 1 3 1    0.0000000000E+00
 1 3 2   -0.2234694559E-02
 1 3 3    0.6468380251E-01
 2 1 1    0.2258875895E+00
 2 1 2    0.0000000000E+00
 2 1 3   -0.2234694559E-02
 2 2 1    0.1386152524E-01
 2 2 2   -0.7498585668E-01
 2 2 3    0.1386152524E-01
 2 3 1   -0.2234694559E-02
 2 3 2    0.0000000000E+00
 2 3 3    0.2258875895E+00
 3 1 1    0.6468380251E-01
 3 1 2   -0.2234694559E-02
 3 1 3    0.0000000000E+00
 3 2 1   -0.1405849009E+00
 3 2 2   -0.1386152524E-01
 3 2 3    0.6727712072E-01
 3 3 1   -0.6468380251E-01
 3 3 2    0.2258875895E+00
 3 3 3    0.0000000000E+00
 
   35
  0.000  0.000  0.000
  3.030 -3.030  0.000
 1 2 1
 1 1 1    0.3215273795E-01
 1 1 2   -0.2468001507E-01
 1 1 3    0.3993651444E-01
 1 2 1   -0.1859505576E-01
 1 2 2    0.2875922698E-01
 1 2 3   -0.7422217931E-02
 1 3 1   -0.1701507661E-01
 1 3 2    0.2546418572E-01
 1 3 3   -0.1599281467E-01
 2 1 1    0.3233330355E-02
 2 1 2   -0.5486170438E-02
 2 1 3    0.2403964705E-01
 2 2 1   -0.9333617637E-02
 2 2 2   -0.1340353864E-01
 2 2 3   -0.2179100056E-01
 2 3 1   -0.2751888569E-01
 2 3 2    0.3444480556E-02
 2 3 3   -0.4214854972E-01
 3 1 1    0.3271875025E-02
 3 1 2   -0.8738703622E-02
 3 1 3    0.1396902395E-01
 3 2 1   -0.7757005531E-02
 3 2 2    0.7324863170E-02
 3 2 3   -0.2277990069E-01
 3 3 1    0.9604516533E-02
 3 3 2   -0.3012256255E-02
 3 3 3    0.4044803035E-02
 
   36
  0.000  0.000  0.000
  3.030 -3.030  0.000
 1 2 2
 1 1 1   -0.1050204616E-01
 1 1 2   -0.7692582560E-02
 1 1 3   -0.2233884791E-01
 1 2 1    0.1627678401E-01
 1 2 2   -0.1279171631E-01
 1 2 3    0.3703843392E-01
 1 3 1    0.5644448163E-02
 1 3 2    0.8916275997E-02
 1 3 3    0.3166492345E-02
 2 1 1   -0.2644958401E-01
 2 1 2    0.2156892416E-01
 2 1 3   -0.2470491287E-01
 2 2 1   -0.2030620488E-01
 2 2 2    0.3059039584E-01
 2 2 3   -0.1563733047E-02
 2 3 1   -0.3948319607E-01
 2 3 2    0.6257860011E-01
 2 3 3   -0.2841751342E-01
 3 1 1   -0.1777390011E-01
 3 1 2    0.2741688516E-01
 3 1 3   -0.2736104797E-01
 3 2 1    0.2539176208E-02
 3 2 2    0.2598668066E-01
 3 2 3    0.9611754562E-02
 3 3 1   -0.1685154764E-01
 3 3 2    0.1489211061E-01
 3 3 3   -0.6862051631E-02
 
   37
  0.000  0.000  0.000
 -3.030  0.000 -3.030
 1 2 2
 1 1 1    0.0000000000E+00
 1 1 2    0.4504733563E-01
 1 1 3    0.2111712361E-01
 1 2 1    0.4504733563E-01
 1 2 2    0.0000000000E+00
 1 2 3    0.2808641571E-01
 1 3 1   -0.2111712361E-01
 1 3 2    0.2808641571E-01
 1 3 3    0.0000000000E+00
 2 1 1   -0.4579247851E-01
 2 1 2   -0.2300851950E+00
 2 1 3   -0.5759807273E-01
 2 2 1    0.2300851950E+00
 2 2 2   -0.1284337115E+00
 2 2 3    0.2300851950E+00
 2 3 1   -0.5759807273E-01
 2 3 2   -0.2300851950E+00
 2 3 3   -0.4579247851E-01
 3 1 1    0.0000000000E+00
 3 1 2    0.2808641571E-01
 3 1 3   -0.2111712361E-01
 3 2 1    0.2808641571E-01
 3 2 2    0.0000000000E+00
 3 2 3    0.4504733563E-01
 3 3 1    0.2111712361E-01
 3 3 2    0.4504733563E-01
 3 3 3    0.0000000000E+00
 
   38
  0.000  0.000  0.000
 -3.030  3.030  0.000
 1 2 1
 1 1 1   -0.1340353864E-01
 1 1 2   -0.9333617637E-02
 1 1 3   -0.2179100056E-01
 1 2 1   -0.5486170438E-02
 1 2 2    0.3233330355E-02
 1 2 3    0.2403964705E-01
 1 3 1    0.3444480556E-02
 1 3 2   -0.2751888569E-01
 1 3 3   -0.4214854972E-01
 2 1 1    0.2875922698E-01
 2 1 2   -0.1859505576E-01
 2 1 3   -0.7422217931E-02
 2 2 1   -0.2468001507E-01
 2 2 2    0.3215273795E-01
 2 2 3    0.3993651444E-01
 2 3 1    0.2546418572E-01
 2 3 2   -0.1701507661E-01
 2 3 3   -0.1599281467E-01
 3 1 1    0.7324863170E-02
 3 1 2   -0.7757005531E-02
 3 1 3   -0.2277990069E-01
 3 2 1   -0.8738703622E-02
 3 2 2    0.3271875025E-02
 3 2 3    0.1396902395E-01
 3 3 1   -0.3012256255E-02
 3 3 2    0.9604516533E-02
 3 3 3    0.4044803035E-02
 
   39
  0.000  0.000  0.000