 3238

    1
0.0000000000e+00 0.0000000000e+00 0.0000000000e+00
0.0000000000e+00 0.0000000000e+00 0.0000000000e+00
     1      1      1
 1  1  1    -9.7873903578e-02
 1  1  2     0.0000000000e+00
 1  1  3    -8.5799803247e+00
 1  2  1     0.0000000000e+00
 1  2  2     9.7873903578e-02
 1  2  3     0.0000000000e+00
 1  3  1    -8.5799803247e+00
 1  3  2     0.0000000000e+00
 1  3  3     0.0000000000e+00
 2  1  1     0.0000000000e+00
 2  1  2     9.7873903578e-02
 2  1  3     0.0000000000e+00
 2  2  1     9.7873903578e-02
 2  2  2     0.0000000000e+00
 2  2  3    -8.5799803247e+00
 2  3  1     0.0000000000e+00
 2  3  2    -8.5799803247e+00
 2  3  3     0.0000000000e+00
 3  1  1    -8.5799803247e+00
 3  1  2     0.0000000000e+00
 3  1  3     0.0000000000e+00
 3  2  1     0.0000000000e+00
 3  2  2    -8.5799803247e+00
 3  2  3     0.0000000000e+00
 3  3  1     0.0000000000e+00
 3  3  2     0.0000000000e+00
 3  3  3     7.0969025856e+01

    2
0.0000000000e+00 0.0000000000e+00 0.0000000000e+00
0.0000000000e+00 0.0000000000e+00 0.0000000000e+00
     1      1      2
 1  1  1    -1.6760115240e-02
 1  1  2     3.1656534943e-02
 1  1  3    -5.5747100092e-02
 1  2  1     6.2465587078e-04
 1  2  2    -2.5987294366e-03
 1  2  3     2.1342253161e-02
 1  3  1    -1.9304828589e-02
 1  3  2    -1.8796403704e-03
 1  3  3    -2.9889817989e-02
 2  1  1     6.2465587078e-04
 2  1  2    -2.5987294366e-03
 2  1  3     2.1342253161e-02
 2  2  1    -2.0514993172e-02
 2  2  2     3.2905846684e-02
 2  2  3    -8.0391011308e-02
 2  3  1    -1.8796403704e-03
 2  3  2    -1.7134406842e-02
 2  3  3     5.1770683387e-02
 3  1  1    -1.9304828589e-02
 3  1  2    -1.8796403704e-03
 3  1  3    -2.9889817989e-02
 3  2  1    -1.8796403704e-03
 3  2  2    -1.7134406842e-02
 3  2  3     5.1770683387e-02
 3  3  1     4.1126767496e-02
 3  3  2    -7.1233650854e-02
 3  3  3     1.0996757948e-01

    3
0.0000000000e+00 0.0000000000e+00 0.0000000000e+00
0.0000000000e+00 0.0000000000e+00 0.0000000000e+00
     1      1      3
 1  1  1    -1.6290107178e-02
 1  1  2    -5.4548069836e-02
 1  1  3    -5.1449538743e-02
 1  2  1    -3.0775160180e-02
 1  2  2    -6.8507376669e-02
 1  2  3    -7.5272370978e-02
 1  3  1     2.9088211371e-03
 1  3  2     1.1369309001e-02
 1  3  3     1.3937148483e-02
 2  1  1    -3.0775160180e-02
 2  1  2    -6.8507376669e-02
 2  1  3    -7.5272370978e-02
 2  2  1    -8.2232672458e-02
 2  2  2    -1.1609839020e-01
 2  2  3    -1.3836658604e-01
 2  3  1     1.1369309001e-02
 2  3  2     1.6036968361e-02
 2  3  3     2.4139849285e-02
 3  1  1     2.9088211371e-03
 3  1  2     1.1369309001e-02
 3  1  3     1.3937148483e-02
 3  2  1     1.1369309001e-02
 3  2  2     1.6036968361e-02
 3  2  3     2.4139849285e-02
 3  3  1     1.2779072838e-01
 3  3  2     2.2134003429e-01
 3  3  3     2.2315336413e-01

    4
0.0000000000e+00 0.0000000000e+00 0.0000000000e+00
0.0000000000e+00 0.0000000000e+00 0.0000000000e+00
     1      1      4
 1  1  1     4.0234483083e-02
 1  1  2     0.0000000000e+00
 1  1  3    -9.2712966915e-02
 1  2  1     0.0000000000e+00
 1  2  2    -1.5167937311e-03
 1  2  3     0.0000000000e+00
 1  3  1    -1.6049195968e-02
 1  3  2     0.0000000000e+00
 1  3  3     5.9779635979e-02
 2  1  1     0.0000000000e+00
 2  1  2    -1.5167937311e-03
 2  1  3     0.0000000000e+00
 2  2  1     3.4315733740e-02
 2  2  2     0.0000000000e+00
 2  2  3    -4.3425144484e-02
 2  3  1     0.0000000000e+00
 2  3  2    -2.0390039463e-02
 2  3  3     0.0000000000e+00
 3  1  1    -1.6049195968e-02
 3  1  2     0.0000000000e+00
 3  1  3     5.9779635979e-02
 3  2  1     0.0000000000e+00
 3  2  2    -2.0390039463e-02
 3  2  3     0.0000000000e+00
 3  3  1    -8.2253534992e-02
 3  3  2     0.0000000000e+00
 3  3  3     1.0996757948e-01

    5
0.0000000000e+00 0.0000000000e+00 0.0000000000e+00
0.0000000000e+00 0.0000000000e+00 0.0000000000e+00
     1      1      5
 1  1  1     8.5294174286e-02
 1  1  2     0.0000000000e+00
 1  1  3     8.6866556719e+00
 1  2  1     0.0000000000e+00
 1  2  2    -8.5294174286e-02
 1  2  3     0.0000000000e+00
 1  3  1     8.9055350475e+00
 1  3  2     0.0000000000e+00
 1  3  3     0.0000000000e+00
 2  1  1     0.0000000000e+00
 2  1  2    -8.5294174286e-02
 2  1  3     0.0000000000e+00
 2  2  1    -8.5294174286e-02
 2  2  2     0.0000000000e+00
 2  2  3     8.6866556719e+00
 2  3  1     0.0000000000e+00
 2  3  2     8.9055350475e+00
 2  3  3     0.0000000000e+00
 3  1  1     8.9055350475e+00
 3  1  2     0.0000000000e+00
 3  1  3     0.0000000000e+00
 3  2  1     0.0000000000e+00
 3  2  2     8.9055350475e+00
 3  2  3     0.0000000000e+00
 3  3  1     0.0000000000e+00
 3  3  2     0.0000000000e+00
 3  3  3    -6.9780273277e+01

    6
0.0000000000e+00 0.0000000000e+00 0.0000000000e+00
0.0000000000e+00 0.0000000000e+00 0.0000000000e+00
     1      1      6
 1  1  1     1.0944595871e-02
 1  1  2     2.0987594237e-02
 1  1  3     5.3286409402e-02
 1  2  1     1.1781709931e-02
 1  2  2     2.1579117511e-02
 1  2  3     3.4046093978e-02
 1  3  1    -6.3486717892e-02
 1  3  2     2.2549213194e-02
 1  3  3    -2.6482418945e-02
 2  1  1     1.1781709931e-02
 2  1  2     2.1579117511e-02
 2  1  3     3.4046093978e-02
 2  2  1     2.6894137293e-02
 2  2  2     4.4551014098e-02
 2  2  3     9.2599452448e-02
 2  3  1     2.2549213194e-02
 2  3  2    -3.7449129276e-02
 2  3  3    -4.5868895121e-02
 3  1  1    -6.3486717892e-02
 3  1  2     2.2549213194e-02
 3  1  3    -2.6482418945e-02
 3  2  1     2.2549213194e-02
 3  2  2    -3.7449129276e-02
 3  2  3    -4.5868895121e-02
 3  3  1    -5.4535583712e-02
 3  3  2    -9.4458401810e-02
 3  3  3    -2.1086293210e-01

    7
0.0000000000e+00 0.0000000000e+00 0.0000000000e+00
0.0000000000e+00 0.0000000000e+00 0.0000000000e+00
     1      1      7
 1  1  1    -8.8921200023e-02
 1  1  2     0.0000000000e+00
 1  1  3     7.6077189212e-02
 1  2  1     0.0000000000e+00
 1  2  2     1.6402711397e-02
 1  2  3     0.0000000000e+00
 1  3  1    -1.0320980211e-02
 1  3  2     0.0000000000e+00
 1  3  3    -4.2859979070e-01
 2  1  1     0.0000000000e+00
 2  1  2     1.6402711397e-02
 2  1  3     0.0000000000e+00
 2  2  1    -5.7395718256e-02
 2  2  2     0.0000000000e+00
 2  2  3     1.0968270611e-01
 2  3  1     0.0000000000e+00
 2  3  2     7.1394337044e-02
 2  3  3     0.0000000000e+00
 3  1  1    -1.0320980211e-02
 3  1  2     0.0000000000e+00
 3  1  3    -4.2859979070e-01
 3  2  1     0.0000000000e+00
 3  2  2     7.1394337044e-02
 3  2  3     0.0000000000e+00
 3  3  1    -1.0257555320e-01
 3  3  2     0.0000000000e+00
 3  3  3    -4.9628414234e-01

    8
0.0000000000e+00 0.0000000000e+00 0.0000000000e+00
0.0000000000e+00 0.0000000000e+00 0.0000000000e+00
     1      1      8
 1  1  1     2.0336510801e-02
 1  1  2    -6.3634199477e-02
 1  1  3     1.0128132689e-01
 1  2  1     2.7711536093e-04
 1  2  2     1.5922733512e-02
 1  2  3     1.4551615672e-02
 1  3  1     5.0965507730e-02
 1  3  2     3.5383770310e-02
 1  3  3     2.1429989535e-01
 2  1  1     2.7711536093e-04
 2  1  2     1.5922733512e-02
 2  1  3     1.4551615672e-02
 2  2  1     5.2821948338e-02
 2  2  2    -6.3079968756e-02
 2  2  3     8.4478568438e-02
 2  3  1     3.5383770310e-02
 2  3  2     1.0107849103e-02
 2  3  3    -3.7117830681e-01
 3  1  1     5.0965507730e-02
 3  1  2     3.5383770310e-02
 3  1  3     2.1429989535e-01
 3  2  1     3.5383770310e-02
 3  2  2     1.0107849103e-02
 3  2  3    -3.7117830681e-01
 3  3  1     5.1287776599e-02
 3  3  2    -8.8833034876e-02
 3  3  3    -4.9628414234e-01

    9
0.0000000000e+00 0.0000000000e+00 0.0000000000e+00
0.0000000000e+00 0.0000000000e+00 0.0000000000e+00
     1      1      9
 1  1  1    -1.4998896116e-02
 1  1  2    -1.4389347738e-02
 1  1  3    -2.0502539251e-02
 1  2  1     5.9393664950e-03
 1  2  2     2.1116710155e-02
 1  2  3     5.7143215250e-03
 1  3  1    -2.2391995159e-02
 1  3  2     1.4786532858e-02
 1  3  3     6.5664993214e-03
 2  1  1     5.9393664950e-03
 2  1  2     2.1116710155e-02
 2  1  3     5.7143215250e-03
 2  2  1    -2.1395548987e-02
 2  2  2    -1.5104482260e-02
 2  2  3    -1.7919713365e-02
 2  3  1     2.2461408973e-02
 2  3  2    -5.7443574518e-02
 2  3  3    -4.2449591445e-03
 3  1  1    -2.2391995159e-02
 3  1  2     1.4786532858e-02
 3  1  3     6.5664993214e-03
 3  2  1     2.2461408973e-02
 3  2  2    -5.7443574518e-02
 3  2  3    -4.2449591445e-03
 3  3  1     2.3903855177e-02
 3  3  2    -1.8698259878e-02
 3  3  3    -1.1114516492e-02

   10
0.0000000000e+00 0.0000000000e+00 0.0000000000e+00
0.0000000000e+00 0.0000000000e+00 0.0000000000e+00
     1      1     10
 1  1  1    -1.6293552781e-02
 1  1  2    -3.8205350884e-02
 1  1  3    -2.3514167442e-02
 1  2  1     8.7757026211e-03
 1  2  2     5.2974226803e-03
 1  2  3     3.9755571780e-03
 1  3  1    -6.4809511611e-02
 1  3  2    -2.0283555684e-03
 1  3  3    -6.9594921179e-03
 2  1  1     8.7757026211e-03
 2  1  2     5.2974226803e-03
 2  1  3     3.9755571780e-03
 2  2  1     8.9483692990e-03
 2  2  2    -8.0600781303e-03
 2  2  3    -1.4908085173e-02
 2  3  1    -9.7032316835e-03
 2  3  2    -1.5026058067e-02
 2  3  3     3.5642756541e-03
 3  1  1    -6.4809511611e-02
 3  1  2    -2.0283555684e-03
 3  1  3    -6.9594921179e-03
 3  2  1    -9.7032316835e-03
 3  2  2    -1.5026058067e-02
 3  2  3     3.5642756541e-03
 3  3  1    -2.8145095650e-02
 3  3  2     1.1352215893e-02
 3  3  3    -1.1114516492e-02

   11
0.0000000000e+00 0.0000000000e+00 0.0000000000e+00
-7.5242348074e+00 0.0000000000e+00 0.0000000000e+00
     1      1      4
 1  1  1     1.8479820332e-01
 1  1  2     0.0000000000e+00
 1  1  3    -1.8182510968e-01
 1  2  1     0.0000000000e+00
 1  2  2    -1.5203235625e-02
 1  2  3     0.0000000000e+00
 1  3  1     2.2601041974e-02
 1  3  2     0.0000000000e+00
 1  3  3    -2.7874296965e-02
 2  1  1     0.0000000000e+00
 2  1  2    -1.5203235625e-02
 2  1  3     0.0000000000e+00
 2  2  1     1.2247355953e-02
 2  2  2     0.0000000000e+00
 2  2  3    -7.9910150957e-03
 2  3  1     0.0000000000e+00
 2  3  2    -3.6552524751e-03
 2  3  3     0.0000000000e+00
 3  1  1     2.2601041974e-02
 3  1  2     0.0000000000e+00
 3  1  3    -2.7874296965e-02
 3  2  1     0.0000000000e+00
 3  2  2    -3.6552524751e-03
 3  2  3     0.0000000000e+00
 3  3  1    -2.5558145676e-01
 3  3  2     0.0000000000e+00
 3  3  3     2.2315336413e-01

   12
0.0000000000e+00 0.0000000000e+00 0.0000000000e+00
-7.5242348074e+00 0.0000000000e+00 0.0000000000e+00
     1      1      7
 1  1  1    -6.6220024075e-02
 1  1  2     0.0000000000e+00
 1  1  3     1.1225597397e-01
 1  2  1     0.0000000000e+00
 1  2  2     1.1725973107e-03
 1  2  3     0.0000000000e+00
 1  3  1    -2.4430334969e-02
 1  3  2     0.0000000000e+00
 1  3  3     5.2964837891e-02
 2  1  1     0.0000000000e+00
 2  1  2     1.1725973107e-03
 2  1  3     0.0000000000e+00
 2  2  1    -9.4574422536e-03
 2  2  2     0.0000000000e+00
 2  2  3     3.3629887879e-02
 2  3  1     0.0000000000e+00
 2  3  2    -7.6505512200e-02
 2  3  3     0.0000000000e+00
 3  1  1    -2.4430334969e-02
 3  1  2     0.0000000000e+00
 3  1  3     5.2964837891e-02
 3  2  1     0.0000000000e+00
 3  2  2    -7.6505512200e-02
 3  2  3     0.0000000000e+00
 3  3  1     1.0907116742e-01
 3  3  2     0.0000000000e+00
 3  3  3    -2.1086293210e-01

   13
0.0000000000e+00 0.0000000000e+00 0.0000000000e+00
-7.5242348074e+00 0.0000000000e+00 0.0000000000e+00
     1      1     10
 1  1  1     4.4148733169e-03
 1  1  2     1.4370602512e-02
 1  1  3    -1.3616672230e-02
 1  2  1    -1.2281736760e-02
 1  2  2     4.6344274469e-04
 1  2  3     1.7387643471e-03
 1  3  1    -3.2551847746e-02
 1  3  2     2.8327202599e-02
 1  3  3     3.9299279641e-04
 2  1  1    -1.2281736760e-02
 2  1  2     4.6344274469e-04
 2  1  3     1.7387643471e-03
 2  2  1     3.9324755268e-02
 2  2  2     2.4009965044e-03
 2  2  3    -2.4805580385e-02
 2  3  1     2.0652326484e-02
 2  3  2    -4.7283721931e-02
 2  3  3    -7.8092347985e-03
 3  1  1    -3.2551847746e-02
 3  1  2     2.8327202599e-02
 3  1  3     3.9299279641e-04
 3  2  1     2.0652326484e-02
 3  2  2    -4.7283721931e-02
 3  2  3    -7.8092347985e-03
 3  3  1     4.2412404726e-03
 3  3  2    -3.0050475771e-02
 3  3  3    -1.1114516492e-02

   14
0.0000000000e+00 0.0000000000e+00 0.0000000000e+00
3.7621174037e+00 -6.5161784872e+00 0.0000000000e+00
     1      1      2
 1  1  1    -1.6290107178e-02
 1  1  2     5.4548069836e-02
 1  1  3    -5.1449538743e-02
 1  2  1     3.0775160180e-02
 1  2  2    -6.8507376669e-02
 1  2  3     7.5272370978e-02
 1  3  1     2.9088211371e-03
 1  3  2    -1.1369309001e-02
 1  3  3     1.3937148483e-02
 2  1  1     3.0775160180e-02
 2  1  2    -6.8507376669e-02
 2  1  3     7.5272370978e-02
 2  2  1    -8.2232672458e-02
 2  2  2     1.1609839020e-01
 2  2  3    -1.3836658604e-01
 2  3  1    -1.1369309001e-02
 2  3  2     1.6036968361e-02
 2  3  3    -2.4139849285e-02
 3  1  1     2.9088211371e-03
 3  1  2    -1.1369309001e-02
 3  1  3     1.3937148483e-02
 3  2  1    -1.1369309001e-02
 3  2  2     1.6036968361e-02
 3  2  3    -2.4139849285e-02
 3  3  1     1.2779072838e-01
 3  3  2    -2.2134003429e-01
 3  3  3     2.2315336413e-01

   15
0.0000000000e+00 0.0000000000e+00 0.0000000000e+00
3.7621174037e+00 -6.5161784872e+00 0.0000000000e+00
     1      1      8
 1  1  1     1.0944595871e-02
 1  1  2    -2.0987594237e-02
 1  1  3     5.3286409402e-02
 1  2  1    -1.1781709931e-02
 1  2  2     2.1579117511e-02
 1  2  3    -3.4046093978e-02
 1  3  1    -6.3486717892e-02
 1  3  2    -2.2549213194e-02
 1  3  3    -2.6482418945e-02
 2  1  1    -1.1781709931e-02
 2  1  2     2.1579117511e-02
 2  1  3    -3.4046093978e-02
 2  2  1     2.6894137293e-02
 2  2  2    -4.4551014098e-02
 2  2  3     9.2599452448e-02
 2  3  1    -2.2549213194e-02
 2  3  2    -3.7449129276e-02
 2  3  3     4.5868895121e-02
 3  1  1    -6.3486717892e-02
 3  1  2    -2.2549213194e-02
 3  1  3    -2.6482418945e-02
 3  2  1    -2.2549213194e-02
 3  2  2    -3.7449129276e-02
 3  2  3     4.5868895121e-02
 3  3  1    -5.4535583712e-02
 3  3  2     9.4458401810e-02
 3  3  3    -2.1086293210e-01

   16
0.0000000000e+00 0.0000000000e+00 0.0000000000e+00
3.7621174037e+00 -6.5161784872e+00 0.0000000000e+00
     1      1      9
 1  1  1    -1.6293552781e-02
 1  1  2     3.8205350884e-02
 1  1  3    -2.3514167442e-02
 1  2  1    -8.7757026211e-03
 1  2  2     5.2974226803e-03
 1  2  3    -3.9755571780e-03
 1  3  1    -6.4809511611e-02
 1  3  2     2.0283555684e-03
 1  3  3    -6.9594921179e-03
 2  1  1    -8.7757026211e-03
 2  1  2     5.2974226803e-03
 2  1  3    -3.9755571780e-03
 2  2  1     8.9483692990e-03
 2  2  2     8.0600781303e-03
 2  2  3    -1.4908085173e-02
 2  3  1     9.7032316835e-03
 2  3  2    -1.5026058067e-02
 2  3  3    -3.5642756541e-03
 3  1  1    -6.4809511611e-02
 3  1  2     2.0283555684e-03
 3  1  3    -6.9594921179e-03
 3  2  1     9.7032316835e-03
 3  2  2    -1.5026058067e-02
 3  2  3    -3.5642756541e-03
 3  3  1    -2.8145095650e-02
 3  3  2    -1.1352215893e-02
 3  3  3    -1.1114516492e-02

   17
0.0000000000e+00 0.0000000000e+00 0.0000000000e+00
-3.7621174037e+00 -6.5161784872e+00 0.0000000000e+00
     1      1      3
 1  1  1    -1.6760115240e-02
 1  1  2    -3.1656534943e-02
 1  1  3    -5.5747100092e-02
 1  2  1    -6.2465587078e-04
 1  2  2    -2.5987294366e-03
 1  2  3    -2.1342253161e-02
 1  3  1    -1.9304828589e-02
 1  3  2     1.8796403704e-03
 1  3  3    -2.9889817989e-02
 2  1  1    -6.2465587078e-04
 2  1  2    -2.5987294366e-03
 2  1  3    -2.1342253161e-02
 2  2  1    -2.0514993172e-02
 2  2  2    -3.2905846684e-02
 2  2  3    -8.0391011308e-02
 2  3  1     1.8796403704e-03
 2  3  2    -1.7134406842e-02
 2  3  3    -5.1770683387e-02
 3  1  1    -1.9304828589e-02
 3  1  2     1.8796403704e-03
 3  1  3    -2.9889817989e-02
 3  2  1     1.8796403704e-03
 3  2  2    -1.7134406842e-02
 3  2  3    -5.1770683387e-02
 3  3  1     4.1126767496e-02
 3  3  2     7.1233650854e-02
 3  3  3     1.0996757948e-01

   18
0.0000000000e+00 0.0000000000e+00 0.0000000000e+00
-3.7621174037e+00 -6.5161784872e+00 0.0000000000e+00
     1      1      6
 1  1  1     2.0336510801e-02
 1  1  2     6.3634199477e-02
 1  1  3     1.0128132689e-01
 1  2  1    -2.7711536093e-04
 1  2  2     1.5922733512e-02
 1  2  3    -1.4551615672e-02
 1  3  1     5.0965507730e-02
 1  3  2    -3.5383770310e-02
 1  3  3     2.1429989535e-01
 2  1  1    -2.7711536093e-04
 2  1  2     1.5922733512e-02
 2  1  3    -1.4551615672e-02
 2  2  1     5.2821948338e-02
 2  2  2     6.3079968756e-02
 2  2  3     8.4478568438e-02
 2  3  1    -3.5383770310e-02
 2  3  2     1.0107849103e-02
 2  3  3     3.7117830681e-01
 3  1  1     5.0965507730e-02
 3  1  2    -3.5383770310e-02
 3  1  3     2.1429989535e-01
 3  2  1    -3.5383770310e-02
 3  2  2     1.0107849103e-02
 3  2  3     3.7117830681e-01
 3  3  1     5.1287776599e-02
 3  3  2     8.8833034876e-02
 3  3  3    -4.9628414234e-01

   19
0.0000000000e+00 0.0000000000e+00 0.0000000000e+00
-3.7621174037e+00 -6.5161784872e+00 0.0000000000e+00
     1      1      9
 1  1  1     4.4148733169e-03
 1  1  2    -1.4370602512e-02
 1  1  3    -1.3616672230e-02
 1  2  1     1.2281736760e-02
 1  2  2     4.6344274469e-04
 1  2  3    -1.7387643471e-03
 1  3  1    -3.2551847746e-02
 1  3  2    -2.8327202599e-02
 1  3  3     3.9299279641e-04
 2  1  1     1.2281736760e-02
 2  1  2     4.6344274469e-04
 2  1  3    -1.7387643471e-03
 2  2  1     3.9324755268e-02
 2  2  2    -2.4009965044e-03
 2  2  3    -2.4805580385e-02
 2  3  1    -2.0652326484e-02
 2  3  2    -4.7283721931e-02
 2  3  3     7.8092347985e-03
 3  1  1    -3.2551847746e-02
 3  1  2    -2.8327202599e-02
 3  1  3     3.9299279641e-04
 3  2  1    -2.0652326484e-02
 3  2  2    -4.7283721931e-02
 3  2  3     7.8092347985e-03
 3  3  1     4.2412404726e-03
 3  3  2     3.0050475771e-02
 3  3  3    -1.1114516492e-02

   20
0.0000000000e+00 0.0000000000e+00 0.0000000000e+00
-3.7621174037e+00 -6.5161784872e+00 0.0000000000e+00
     1      1     10
 1  1  1    -1.4998896116e-02
 1  1  2     1.4389347738e-02
 1  1  3    -2.0502539251e-02
 1  2  1    -5.9393664950e-03
 1  2  2     2.1116710155e-02
 1  2  3    -5.7143215250e-03
 1  3  1    -2.2391995159e-02
 1  3  2    -1.4786532858e-02
 1  3  3     6.5664993214e-03
 2  1  1    -5.9393664950e-03
 2  1  2     2.1116710155e-02
 2  1  3    -5.7143215250e-03
 2  2  1    -2.1395548987e-02
 2  2  2     1.5104482260e-02
 2  2  3    -1.7919713365e-02
 2  3  1    -2.2461408973e-02
 2  3  2    -5.7443574518e-02
 2  3  3     4.2449591445e-03
 3  1  1    -2.2391995159e-02
 3  1  2    -1.4786532858e-02
 3  1  3     6.5664993214e-03
 3  2  1    -2.2461408973e-02
 3  2  2    -5.7443574518e-02
 3  2  3     4.2449591445e-03
 3  3  1     2.3903855177e-02
 3  3  2     1.8698259878e-02
 3  3  3    -1.1114516492e-02

   21
0.0000000000e+00 0.0000000000e+00 0.0000000000e+00
0.0000000000e+00 0.0000000000e+00 0.0000000000e+00
     1      2      1
 1  1  1    -1.6760115240e-02
 1  1  2     6.2465587078e-04
 1  1  3    -1.9304828589e-02
 1  2  1     3.1656534943e-02
 1  2  2    -2.5987294366e-03
 1  2  3    -1.8796403704e-03
 1  3  1    -5.5747100092e-02
 1  3  2     2.1342253161e-02
 1  3  3    -2.9889817989e-02
 2  1  1     6.2465587078e-04
 2  1  2    -2.0514993172e-02
 2  1  3    -1.8796403704e-03
 2  2  1    -2.5987294366e-03
 2  2  2     3.2905846684e-02
 2  2  3    -1.7134406842e-02
 2  3  1     2.1342253161e-02
 2  3  2    -8.0391011308e-02
 2  3  3     5.1770683387e-02
 3  1  1    -1.9304828589e-02
 3  1  2    -1.8796403704e-03
 3  1  3     4.1126767496e-02
 3  2  1    -1.8796403704e-03
 3  2  2    -1.7134406842e-02
 3  2  3    -7.1233650854e-02
 3  3  1    -2.9889817989e-02
 3  3  2     5.1770683387e-02
 3  3  3     1.0996757948e-01

   22
0.0000000000e+00 0.0000000000e+00 0.0000000000e+00
0.0000000000e+00 0.0000000000e+00 0.0000000000e+00
     1      2      2
 1  1  1     8.0625736495e-03
 1  1  2    -7.6710170677e-03
 1  1  3    -2.7765090537e-03
 1  2  1    -7.6710170677e-03
 1  2  2     9.1655212586e-03
 1  2  3    -1.8376137392e-02
 1  3  1    -2.7765090537e-03
 1  3  2    -1.8376137392e-02
 1  3  3    -3.1419430736e-02
 2  1  1    -7.2489507815e-03
 2  1  2     9.4092013426e-03
 2  1  3    -1.8376137392e-02
 2  2  1     9.4092013426e-03
 2  2  2    -2.2590984917e-02
 2  2  3     1.8442426687e-02
 2  3  1    -1.8376137392e-02
 2  3  2     1.8442426687e-02
 2  3  3     5.4420050380e-02
 3  1  1    -3.2227661017e-02
 3  1  2    -5.6607200104e-02
 3  1  3     6.1412366771e-02
 3  2  1    -5.6607200104e-02
 3  2  2     3.3136703420e-02
 3  2  3    -1.0636933946e-01
 3  3  1     6.1412366771e-02
 3  3  2    -1.0636933946e-01
 3  3  3    -2.5759262131e-02

   23
0.0000000000e+00 0.0000000000e+00 0.0000000000e+00
0.0000000000e+00 0.0000000000e+00 0.0000000000e+00
     1      2      3
 1  1  1     7.7341296180e-03
 1  1  2     7.4205980578e-03
 1  1  3    -2.8809894896e-03
 1  2  1     3.2863840272e-03
 1  2  2     1.1055591327e-02
 1  2  3     9.6070528683e-03
 1  3  1     9.0426900223e-04
 1  3  2    -4.9545330467e-03
 1  3  3    -2.3416703358e-03
 2  1  1    -1.3891856361e-03
 2  1  2     6.7617782832e-03
 2  1  3     8.2379843624e-03
 2  2  1     6.7888048281e-03
 2  2  2     1.1324282010e-03
 2  2  3    -2.8018719149e-03
 2  3  1    -3.2458090782e-04
 2  3  2     8.6567136501e-03
 2  3  3     5.6377313367e-03
 3  1  1     1.1381907112e-02
 3  1  2     1.2627253738e-02
 3  1  3     1.4000517044e-02
 3  2  1     1.9192197418e-03
 3  2  2     7.6464805271e-03
 3  2  3     1.3357091744e-02
 3  3  1     3.1700107588e-03
 3  3  2     4.6367599279e-03
 3  3  3     1.7503025019e-02

   24
0.0000000000e+00 0.0000000000e+00 0.0000000000e+00
0.0000000000e+00 0.0000000000e+00 0.0000000000e+00
     1      2      5
 1  1  1     1.6033681543e-02
 1  1  2     1.0601280626e-02
 1  1  3     4.3656071076e-02
 1  2  1    -1.5460637461e-02
 1  2  2    -3.4845249690e-02
 1  2  3    -4.8766790606e-02
 1  3  1     3.6013895200e-02
 1  3  2     7.0616845506e-03
 1  3  3     4.2190304754e-02
 2  1  1     1.8720974318e-02
 2  1  2    -1.5110486928e-02
 2  1  3    -4.8766790606e-02
 2  2  1    -3.0157342352e-02
 2  2  2     1.3861617483e-02
 2  2  3     9.9967110444e-02
 2  3  1     7.0616845506e-03
 2  3  2     2.7859764247e-02
 2  3  3    -7.3075751421e-02
 3  1  1     4.2198161717e-03
 3  1  2    -2.7619867641e-02
 3  1  3    -4.9522839408e-02
 3  2  1    -2.7619867641e-02
 3  2  2     3.6112492207e-02
 3  2  3     8.5776073990e-02
 3  3  1    -2.0642646196e-02
 3  3  2     3.5754112014e-02
 3  3  3    -8.3283212196e-02

   25
0.0000000000e+00 0.0000000000e+00 0.0000000000e+00
0.0000000000e+00 0.0000000000e+00 0.0000000000e+00
     1      2      6
 1  1  1    -6.2056672998e-03
 1  1  2     2.8273734448e-03
 1  1  3     1.3896587471e-03
 1  2  1     2.3789150028e-03
 1  2  2    -2.0231354904e-03
 1  2  3     7.1783573188e-04
 1  3  1    -4.7287622822e-03
 1  3  2     2.9002975085e-03
 1  3  3     2.3210947358e-03
 2  1  1     1.0960457884e-02
 2  1  2     1.7577898111e-03
 2  1  3     5.0785053171e-03
 2  2  1    -7.1320104375e-03
 2  2  2    -1.7915300291e-03
 2  2  3    -5.3383773504e-03
 2  3  1     7.7830808768e-03
 2  3  2    -1.3189335191e-03
 2  3  3    -3.7337666629e-04
 3  1  1    -2.7492873932e-04
 3  1  2     8.7693420598e-04
 3  1  3     1.2497109470e-04
 3  2  1     5.0741992395e-03
 3  2  2     1.9290565629e-03
 3  2  3     3.4142760535e-03
 3  3  1     5.1601119474e-03
 3  3  2    -5.4022580572e-03
 3  3  3    -8.3938786311e-03

   26
0.0000000000e+00 0.0000000000e+00 0.0000000000e+00
0.0000000000e+00 0.0000000000e+00 0.0000000000e+00
     1      2      7
 1  1  1     6.6476758255e-03
 1  1  2     1.6967601513e-03
 1  1  3    -3.0535456966e-03
 1  2  1    -1.0318054150e-02
 1  2  2    -3.8275987036e-03
 1  2  3     7.7439482942e-03
 1  3  1     1.2298315206e-02
 1  3  2    -1.5948734769e-03
 1  3  3     4.0052166271e-04
 2  1  1    -4.9519907732e-03
 2  1  2    -9.4262443105e-03
 2  1  3     1.0561619540e-02
 2  2  1     1.3718533210e-02
 2  2  2     1.5145691202e-02
 2  2  3    -1.5619010719e-02
 2  3  1    -1.1082020399e-02
 2  3  2    -1.8371948235e-03
 2  3  3     3.1801740855e-03
 3  1  1     3.6714958956e-03
 3  1  2    -2.0017544272e-04
 3  1  3     6.8999164906e-03
 3  2  1     5.4890846698e-04
 3  2  2     2.7931463950e-03
 3  2  3    -1.5065527347e-02
 3  3  1     9.4382535576e-03
 3  3  2     1.6939588682e-03
 3  3  3     7.1841353350e-03

   27
0.0000000000e+00 0.0000000000e+00 0.0000000000e+00
0.0000000000e+00 0.0000000000e+00 0.0000000000e+00
     1      2      8
 1  1  1    -2.0221528921e-03
 1  1  2    -2.0022866454e-02
 1  1  3    -1.6643544077e-02
 1  2  1    -1.4506473111e-02
 1  2  2     3.8521780540e-02
 1  2  3     3.0461019518e-02
 1  3  1     1.0541102999e-02
 1  3  2    -4.2770713976e-03
 1  3  3     6.9134687818e-03
 2  1  1    -1.4344934989e-02
 2  1  2     3.8615044618e-02
 2  1  3     3.0461019518e-02
 2  2  1     4.1799935800e-02
 2  2  2    -4.8874274554e-02
 2  2  3    -5.1816899714e-02
 2  3  1    -4.2770713976e-03
 2  3  2     1.5479839645e-02
 2  3  3    -1.1974479187e-02
 3  1  1     3.1631520984e-03
 3  1  2     7.9001822848e-02
 3  1  3    -8.0422377867e-02
 3  2  1     7.9001822848e-02
 3  2  2    -8.8060295277e-02
 3  2  3     1.3929564453e-01
 3  3  1    -1.1156116322e-02
 3  3  2     1.9322960284e-02
 3  3  3    -2.7503604902e-02

   28
0.0000000000e+00 0.0000000000e+00 0.0000000000e+00
0.0000000000e+00 0.0000000000e+00 0.0000000000e+00
     1      2      9
 1  1  1     3.4579630924e-03
 1  1  2     7.4091519808e-03
 1  1  3     2.8703709931e-03
 1  2  1     1.6403950066e-03
 1  2  2    -9.6298266807e-03
 1  2  3     2.8037740191e-03
 1  3  1     1.8003287587e-03
 1  3  2     1.4095283492e-03
 1  3  3     7.2362070917e-03
 2  1  1    -4.4481076428e-03
 2  1  2    -1.3288748052e-02
 2  1  3    -7.1419259270e-03
 2  2  1    -1.0039957563e-03
 2  2  2     7.4889256692e-03
 2  2  3    -1.7767856738e-03
 2  3  1    -4.8499109575e-03
 2  3  2    -5.0010441056e-04
 2  3  3    -1.8135566816e-02
 3  1  1     3.6842857831e-03
 3  1  2    -2.5495145692e-03
 3  1  3     1.1785045899e-02
 3  2  1    -6.9898245673e-03
 3  2  2     9.2796424564e-03
 3  2  3    -1.4359906224e-02
 3  3  1     2.6366249660e-03
 3  3  2     1.0538637241e-02
 3  3  3    -3.0177957666e-03

   29
0.0000000000e+00 0.0000000000e+00 0.0000000000e+00
-7.5242348074e+00 0.0000000000e+00 0.0000000000e+00
     1      2      4
 1  1  1    -1.2946977417e-02
 1  1  2    -1.5855866496e-03
 1  1  3     4.9054764781e-03
 1  2  1    -3.6292879904e-03
 1  2  2     3.7744754061e-03
 1  2  3     3.7424661400e-03
 1  3  1     4.4326790911e-03
 1  3  2    -2.3617094224e-03
 1  3  3    -3.7115833894e-03
 2  1  1    -9.6856239969e-03
 2  1  2     1.8722198223e-03
 2  1  3     5.1115346458e-03
 2  2  1    -1.7216278253e-03
 2  2  2    -6.7151303888e-03
 2  2  3    -1.0588337883e-02
 2  3  1    -6.9916615613e-03
 2  3  2     5.1283035612e-03
 2  3  3     4.8468116664e-03
 3  1  1     1.4879144958e-02
 3  1  2    -9.9911469806e-05
 3  1  3    -1.8567839293e-02
 3  2  1     1.0608122526e-02
 3  2  2     4.1492426815e-03
 3  2  3    -5.4462575543e-03
 3  3  1    -5.6005572682e-03
 3  3  2    -4.2692988340e-04
 3  3  3     1.7503025019e-02

   30
0.0000000000e+00 0.0000000000e+00 0.0000000000e+00
-7.5242348074e+00 0.0000000000e+00 0.0000000000e+00
     1      2      7
 1  1  1     1.2131465890e-03
 1  1  2     5.9782710888e-04
 1  1  3    -1.1464790273e-03
 1  2  1    -7.3251949619e-03
 1  2  2    -5.0392696415e-03
 1  2  3     6.5427451439e-03
 1  3  1     2.4546478301e-03
 1  3  2     3.6357371148e-03
 1  3  3    -8.3719368972e-04
 2  1  1     2.3995383950e-04
 2  1  2     5.0210184627e-04
 2  1  3     2.1820755587e-03
 2  2  1     4.5586255673e-03
 2  2  2     1.1470862347e-02
 2  2  3    -2.8022395760e-03
 2  3  1    -1.2470462535e-03
 2  3  2    -8.5023436314e-03
 2  3  3    -2.1968153390e-03
 3  1  1     3.9549766099e-03
 3  1  2     2.6320622474e-03
 3  1  3    -3.0193353452e-03
 3  2  1    -1.5652027860e-03
 3  2  2    -2.3008487863e-03
 3  2  3     1.5989098840e-03
 3  3  1     2.0984367416e-03
 3  3  2    -7.1699170614e-03
 3  3  3    -8.3938786311e-03

   31
0.0000000000e+00 0.0000000000e+00 0.0000000000e+00
-7.5242348074e+00 0.0000000000e+00 0.0000000000e+00
     1      2     10
 1  1  1     2.6782777977e-03
 1  1  2    -2.7119022032e-04
 1  1  3    -2.4934713859e-03
 1  2  1     7.4833388598e-03
 1  2  2    -2.2257716628e-03
 1  2  3    -4.0451100856e-03
 1  3  1    -1.4147254870e-03
 1  3  2    -2.9936985233e-03
 1  3  3     1.2087758028e-02
 2  1  1     1.2703686772e-03
 2  1  2    -5.6691089426e-03
 2  1  3     5.9005898605e-03
 2  2  1    -1.6807375178e-02
 2  2  2     5.5950309921e-03
 2  2  3     3.5870567052e-03
 2  3  1     3.2657407834e-03
 2  3  2     2.7149498351e-03
 2  3  3    -1.5334522576e-02
 3  1  1     3.7501482743e-03
 3  1  2    -7.0278502943e-03
 3  1  3     6.5435206361e-03
 3  2  1    -2.5875402963e-03
 3  2  2     9.2137799652e-03
 3  2  3    -1.7386102245e-02
 3  3  1    -1.0445040055e-02
 3  3  2     2.9859344198e-03
 3  3  3    -3.0177957666e-03

   32
0.0000000000e+00 0.0000000000e+00 0.0000000000e+00
-3.7621174037e+00 -6.5161784872e+00 0.0000000000e+00
     1      2      6
 1  1  1    -7.9039309497e-03
 1  1  2    -1.6012578535e-03
 1  1  3    -4.5511010759e-03
 1  2  1     1.2435300294e-02
 1  2  2    -2.3341111413e-03
 1  2  3     1.1426233542e-02
 1  3  1    -3.7925733851e-03
 1  3  2    -1.7919415399e-03
 1  3  3    -2.9543723779e-03
 2  1  1     1.0269762660e-02
 2  1  2     5.1123588647e-03
 2  1  3     8.6085622955e-03
 2  2  1    -1.6865164302e-02
 2  2  2    -7.6151708736e-03
 2  2  3    -1.4121455340e-02
 2  3  1     7.6952053827e-03
 2  3  2     1.4253693768e-02
 2  3  3     1.2432251081e-03
 3  1  1     3.1637395992e-03
 3  1  2     8.4206170135e-04
 3  1  3     9.5971711585e-03
 3  2  1     9.2977791653e-05
 3  2  2     3.3009026914e-03