  90
   1   1
     0.545648740124091    -0.000000000000000     0.000000000000002
    -0.000000000000000     0.545648740124091    -0.000000000000001
    -0.000000000000000     0.000000000000000    19.037466460051466
   1   2
    -0.011099873080950    -0.000000000000000    -0.006718023363848
    -0.000000000000000     0.002568097660961    -0.000000000000000
     0.006822269555348     0.000000000000000     0.042177160410761
   1   3
    -0.011025652279088     0.000000000000000     0.006732304876101
    -0.000000000000000     0.002553859210561     0.000000000000000
    -0.006489714398262    -0.000000000000000     0.042126736069143
   1   4
    -0.000848895024517     0.005918404940339     0.003359011681924
     0.005918404940339    -0.007682880395472    -0.005817978896310
    -0.003411134777674     0.005908258746396     0.042177160410761
   1   5
    -0.000841018661851    -0.005880100960509    -0.003366152438051
    -0.005880100960509    -0.007630774406675    -0.005830347048726
     0.003244857199131     0.005620257532201     0.042126736069143
   1   6
    -0.003289032271884    -0.005497311104016    -0.000000000000000
     0.005497311104016    -0.003289032271884     0.000000000000000
     0.000000000000000     0.000000000000000     0.021292728755124
   1   7
    -0.000841018661851     0.005880100960509    -0.003366152438051
     0.005880100960509    -0.007630774406675     0.005830347048726
     0.003244857199131    -0.005620257532201     0.042126736069143
   1   8
    -0.003289032271884     0.005497311104016    -0.000000000000000
    -0.005497311104016    -0.003289032271884     0.000000000000000
     0.000000000000000    -0.000000000000000     0.021292728755124
   1   9
    -0.000848895024517    -0.005918404940339     0.003359011681924
    -0.005918404940339    -0.007682880395472     0.005817978896310
    -0.003411134777674    -0.005908258746396     0.042177160410761
   1  10
     0.008780202002966     0.002732825171709     0.014329712356933
     0.002732825171709     0.005624607305898    -0.024819789860055
     0.034197928869090    -0.059232550314890     0.135135834858854
   1  11
    -0.006911680683948    -0.008732972313060    -0.003771271335630
    -0.008316904256087     0.003957549874398    -0.005843539744636
     0.008772925015630    -0.006075601939295     0.031060577375314
   1  12
    -0.007513687972421     0.004298612559163    -0.000189230037353
     0.001188813266055     0.004193950449193     0.000086577066909
    -0.000701908094205     0.000831771737502     0.009163573581871
   1  13
    -0.003987345907856     0.006986859908713    -0.000396430977625
     0.006986859908713    -0.012055076806027     0.000686638594941
     0.002161192001983    -0.003743294352346     0.009102060554018
   1  14
     0.003643165926800    -0.005252599335970     0.000019637079348
    -0.002142800042862    -0.006962903450028     0.000207166552962
    -0.000369381407724     0.001023756109455     0.009163573581871
   1  15
    -0.000010447334046    -0.003131713782693    -0.000593277821513
     0.000378205878705    -0.009658850536901     0.001009447372989
     0.002466682154729    -0.003515914737994     0.009950987027593
   1  16
     0.017930127800761     0.053388240610520    -0.048120365410728
     0.053388240610520    -0.043717302375328     0.083346917770160
     0.057350639893244    -0.099334222141685     0.161476483757343
   1  17
    -0.008439053633374     0.005244463994516    -0.000577568158035
     0.001734544333117    -0.001230244237573     0.001018517351427
     0.001811530403278    -0.003894166778054     0.009950987027593
   1  18
    -0.006142570885324    -0.008760950005359     0.006946289534693
    -0.009177018062332     0.003188440075774     0.000344246908902
     0.000875163114896    -0.010635376898679     0.031060577375314
   1  19
     0.017930127800761    -0.053388240610520    -0.048120365410728
    -0.053388240610520    -0.043717302375328    -0.083346917770160
     0.057350639893244     0.099334222141685     0.161476483757343
   1  20
    -0.008439053633374    -0.005244463994516    -0.000577568158035
    -0.001734544333117    -0.001230244237573    -0.001018517351427
     0.001811530403278     0.003894166778054     0.009950987027593
   1  21
    -0.006142570885324     0.008760950005359     0.006946289534693
     0.009177018062332     0.003188440075774    -0.000344246908902
     0.000875163114896     0.010635376898679     0.031060577375314
   1  22
    -0.000010447334046     0.003131713782693    -0.000593277821513
    -0.000378205878705    -0.009658850536901    -0.001009447372989
     0.002466682154729     0.003515914737994     0.009950987027593
   1  23
    -0.003987345907856    -0.006986859908713    -0.000396430977625
    -0.006986859908713    -0.012055076806027    -0.000686638594941
     0.002161192001983     0.003743294352346     0.009102060554018
   1  24
     0.003643165926800     0.005252599335970     0.000019637079348
     0.002142800042862    -0.006962903450028    -0.000207166552962
    -0.000369381407724    -0.001023756109455     0.009163573581871
   1  25
    -0.006911680683948     0.008732972313060    -0.003771271335630
     0.008316904256087     0.003957549874398     0.005843539744636
     0.008772925015630     0.006075601939295     0.031060577375314
   1  26
    -0.007513687972421    -0.004298612559163    -0.000189230037353
    -0.001188813266055     0.004193950449193    -0.000086577066909
    -0.000701908094205    -0.000831771737502     0.009163573581871
   1  27
     0.008780202002966    -0.002732825171709     0.014329712356933
    -0.002732825171709     0.005624607305898     0.024819789860055
     0.034197928869090     0.059232550314890     0.135135834858854
   1  28
     0.004046809957363    -0.000000000000000    -0.028659424713866
     0.000000000000000     0.010357999351500    -0.000000000000000
    -0.068395857738180     0.000000000000000     0.135135834858854
   1  29
    -0.016088942255113    -0.000000000000000     0.000792861955250
     0.000000000000000     0.000046519541229    -0.000000000000000
    -0.004322384003966     0.000000000000000     0.009102060554018
   1  30
    -0.074541017463373    -0.000000000000000     0.096240730821455
    -0.000000000000000     0.048753842888805    -0.000000000000000
    -0.114701279786488     0.000000000000000     0.161476483757343
   1  31
     0.008623055354947     0.000652079777758    -0.003175018199064
     0.000236011720785    -0.011577186164497    -0.006187786653537
    -0.009648088130526     0.004559774959384     0.031060577375314
   1  32
    -0.001109084239221    -0.004886512955471     0.000169592958005
    -0.007996312248579    -0.002210653284007     0.000120589486052
     0.001071289501929     0.000191984371953     0.009163573581871
   1  33
    -0.006054445839000     0.003111298285111     0.001170845979548
     0.006621217946510    -0.003614852031947     0.000009069978438
    -0.004278212558007    -0.000378252040060     0.009950987027593
   1  34
    -0.001109084239221     0.004886512955471     0.000169592958005
     0.007996312248579    -0.002210653284007    -0.000120589486052
     0.001071289501929    -0.000191984371953     0.009163573581871
   1  35
    -0.006054445839000    -0.003111298285111     0.001170845979548
    -0.006621217946510    -0.003614852031947    -0.000009069978438
    -0.004278212558007     0.000378252040060     0.009950987027593
   1  36
     0.008623055354947    -0.000652079777758    -0.003175018199064
    -0.000236011720785    -0.011577186164497     0.006187786653537
    -0.009648088130526    -0.004559774959384     0.031060577375314
   1  37
    -0.647310256946406    -0.000000000000000    -0.000000000000000
    -0.000000000000000    -0.647310256946406    -0.000000000000000
     0.000000000000000    -0.000000000000000   -18.668355377044520
   1  38
     0.022371895814472    -0.000000000000000     0.006601152988577
     0.000000000000000    -0.006992135269131    -0.000000000000000
    -0.005667044389027    -0.000000000000000    -0.046385725367618
   1  39
     0.026221023254735    -0.000000000000000    -0.001784236930818
    -0.000000000000000     0.004931715473314     0.000000000000000
     0.001612715043728     0.000000000000000    -0.043222998607273
   1  40
     0.000348872501769    -0.012714998437958    -0.003300576494289
    -0.012714998437958     0.015030888043571     0.005716766182375
     0.002833522194513    -0.004907804405271    -0.046385725367618
   1  41
     0.010254042418669     0.009218540683848     0.000892118465409
     0.009218540683848     0.020898696309380     0.001545194508459
    -0.000806357521864    -0.001396652196934    -0.043222998607273
   1  42
     0.003719262828508     0.019949130390713    -0.000000000000000
    -0.019949130390713     0.003719262828508     0.000000000000000
    -0.000000000000000    -0.000000000000000    -0.021877511050272
   1  43
     0.010254042418669    -0.009218540683848     0.000892118465409
    -0.009218540683848     0.020898696309380    -0.001545194508459
    -0.000806357521864     0.001396652196934    -0.043222998607273
   1  44
     0.003719262828508    -0.019949130390713    -0.000000000000000
     0.019949130390713     0.003719262828508     0.000000000000000
    -0.000000000000000     0.000000000000000    -0.021877511050272
   1  45
     0.000348872501769     0.012714998437958    -0.003300576494289
     0.012714998437958     0.015030888043571    -0.005716766182375
     0.002833522194513     0.004907804405271    -0.046385725367618
   1  46
    -0.057723756879988     0.074741203357074     0.028636098243852
     0.074741203357074     0.028579950875539     0.049599177088886
    -0.024516358859724    -0.042463579161633    -0.129192299036712
   1  47
     0.018050974692053    -0.011117335870797    -0.009603126864174
     0.004906044826749     0.000154145027355     0.000434946693283
    -0.000923255781327    -0.015046518714783    -0.014048548399083
   1  48
     0.011039357953161    -0.023525548305338     0.003418875020785
    -0.009746269233159     0.018121347840788    -0.020478980633918
    -0.004736840570413    -0.001293203479287    -0.051546516664557
   1  49
     0.007317920360752    -0.001290686980655     0.005178238317762
    -0.017314067678201     0.010887199358656    -0.008099078473498
    -0.012569039554857    -0.008322822318211    -0.014048548399083
   1  50
     0.003477590728356     0.006714184071661    -0.005158006175404
     0.006714184071661     0.011230462690681    -0.008933928761553
    -0.002154981943281    -0.003732538215156    -0.010368271799081
   1  51
    -0.010517910046985    -0.004666737314373     0.008866200831915
    -0.009859733194796     0.009318501042930    -0.004230732669638
     0.001284004459439     0.001768952130884    -0.012886103912581
   1  52
     0.030757969978091     0.001638276727480    -0.019444754982975
    -0.012141002344699    -0.001597264184142    -0.007278657696595
     0.001248473219882    -0.004748826007298    -0.051546516664557
   1  53
     0.010649544514584     0.002361302394385    -0.008097022384485
     0.007554298274809    -0.011848953518639     0.005562988820674
     0.000889955253704     0.001996456545889    -0.012886103912581
   1  54
     0.031664306362340     0.095311779267643     0.075569431961145
     0.095311779267643     0.141720869196571     0.130890095655823
    -0.062345546861849    -0.107985654790388    -0.282097111611125
   1  55
     0.196749150613687    -0.000000000000000    -0.151138863922290
    -0.000000000000000    -0.023363975054776     0.000000000000000
     0.124691093723697    -0.000000000000000    -0.282097111611125
   1  56
     0.015106898671844     0.000000000000000     0.010316012350807
    -0.000000000000000    -0.000398845252806     0.000000000000000
     0.004309963886562    -0.000000000000000    -0.010368271799081
   1  57
     0.071731804753302    -0.000000000000000    -0.057272196487705
    -0.000000000000000    -0.100875610757751     0.000000000000000
     0.049032717719448    -0.000000000000000    -0.129192299036712
   1  58
     0.001943730759672    -0.004494906424550     0.016025879962190
    -0.018274185496729     0.027216975034277    -0.013200322937323
     0.003488367350531     0.003455622528011    -0.051546516664557
   1  59
    -0.001930747973681     0.014817533529393    -0.000769178447430
     0.009624537648969     0.000731338969627     0.009793721490313
    -0.002173959713143     0.000227504415005    -0.012886103912581
   1  60
     0.001938784526307    -0.014208422156177     0.004424888546412
     0.001814958541369     0.016266335193101    -0.008534025166781
     0.013492295336184     0.006723696396572    -0.014048548399083
   1  61
    -0.001930747973681    -0.014817533529393    -0.000769178447430
    -0.009624537648969     0.000731338969627    -0.009793721490313
    -0.002173959713143    -0.000227504415005    -0.012886103912581
   1  62
     0.001938784526307     0.014208422156177     0.004424888546412
    -0.001814958541369     0.016266335193101     0.008534025166781
     0.013492295336184    -0.006723696396572    -0.014048548399083
   1  63
     0.001943730759672     0.004494906424550     0.016025879962190
     0.018274185496729     0.027216975034277     0.013200322937323
     0.003488367350531    -0.003455622528011    -0.051546516664557
   1  64
     0.031664306362340    -0.095311779267643     0.075569431961145
    -0.095311779267643     0.141720869196571    -0.130890095655823
    -0.062345546861849     0.107985654790388    -0.282097111611125
   1  65
     0.030757969978091    -0.001638276727480    -0.019444754982975
     0.012141002344699    -0.001597264184142     0.007278657696595
     0.001248473219882     0.004748826007298    -0.051546516664557
   1  66
     0.010649544514584    -0.002361302394385    -0.008097022384485
    -0.007554298274809    -0.011848953518639    -0.005562988820674
     0.000889955253704    -0.001996456545889    -0.012886103912581
   1  67
     0.003477590728356    -0.006714184071661    -0.005158006175404
    -0.006714184071661     0.011230462690681     0.008933928761553
    -0.002154981943281     0.003732538215156    -0.010368271799081
   1  68
    -0.010517910046985     0.004666737314373     0.008866200831915
     0.009859733194796     0.009318501042930     0.004230732669638
     0.001284004459439    -0.001768952130884    -0.012886103912581
   1  69
     0.007317920360752     0.001290686980655     0.005178238317762
     0.017314067678201     0.010887199358656     0.008099078473498
    -0.012569039554857     0.008322822318211    -0.014048548399083
   1  70
    -0.057723756879988    -0.074741203357074     0.028636098243852
    -0.074741203357074     0.028579950875539    -0.049599177088886
    -0.024516358859724     0.042463579161633    -0.129192299036712
   1  71
     0.018050974692053     0.011117335870797    -0.009603126864174
    -0.004906044826749     0.000154145027355    -0.000434946693283
    -0.000923255781327     0.015046518714783    -0.014048548399083
   1  72
     0.011039357953161     0.023525548305338     0.003418875020785
     0.009746269233159     0.018121347840788     0.020478980633918
    -0.004736840570413     0.001293203479287    -0.051546516664557
   1  73
    -0.002046961020123     0.020582940980407    -0.000252187703869
     0.023422343641523    -0.040172283527632    -0.001676503059938
     0.023929913847039    -0.016838645744872     0.010134709050061
   1  74
    -0.023080366483494    -0.001653862373334     0.013199211649500
    -0.000954068272933    -0.001451463164028    -0.005234202102292
    -0.010319117158869     0.004112797400707     0.013756157251509
   1  75
    -0.007987956089382     0.009667675476694    -0.002066653835623
     0.010367469577095    -0.016543873558140     0.014047953649540
     0.001597771549804    -0.010993016304562     0.013756157251509
   1  76
    -0.001029513443876     0.006245678029205     0.003609652221966
     0.005914584970138    -0.009369331677999     0.003772286486766
     0.002158962236903     0.000266813426314     0.003716344011021
   1  77
    -0.002018828782403    -0.006485766447150    -0.005071722038875
    -0.006816859506217    -0.008380016339472     0.001239907279666
    -0.001310548323710     0.001736309429812     0.003716344011021
   1  78
    -0.005729421898407    -0.009063504253961    -0.011132557813877
    -0.008363710153560    -0.018802407749115    -0.008813751547248
     0.008721345609065     0.006880218903855     0.013756157251509
   1  79
    -0.049695800092433     0.004087726423448    -0.001325800387494
     0.006927129084565     0.007476555544677     0.001056652488042
    -0.026547651903905    -0.012304590429473     0.010134709050061
   1  80
    -0.012549925456534     0.000736728006546     0.001462069816909
     0.000405634947478     0.002151080334659    -0.005012193766432
    -0.000848413913193    -0.002003122856127     0.003716344011021
   1  81
    -0.011586105709077    -0.028929771395529     0.001577988091363
    -0.026090368734413    -0.030633138838678     0.000619850571896
     0.002617738056866     0.029143236174344     0.010134709050061
   1  82
    -0.049695800092433    -0.004087726423448    -0.001325800387494
    -0.006927129084565     0.007476555544677    -0.001056652488042
    -0.026547651903905     0.012304590429473     0.010134709050061
   1  83
    -0.012549925456534    -0.000736728006546     0.001462069816909
    -0.000405634947478     0.002151080334659     0.005012193766432
    -0.000848413913193     0.002003122856127     0.003716344011021
   1  84
    -0.011586105709077     0.028929771395529     0.001577988091363
     0.026090368734413    -0.030633138838678    -0.000619850571896
     0.002617738056866    -0.029143236174344     0.010134709050061
   1  85
    -0.005729421898407     0.009063504253961    -0.011132557813877
     0.008363710153560    -0.018802407749115     0.008813751547248
     0.008721345609065    -0.006880218903855     0.013756157251509
   1  86
    -0.001029513443876    -0.006245678029205     0.003609652221966
    -0.005914584970138    -0.009369331677999    -0.003772286486766
     0.002158962236903    -0.000266813426314     0.003716344011021
   1  87
    -0.002018828782403     0.006485766447150    -0.005071722038875
     0.006816859506217    -0.008380016339472    -0.001239907279666
    -0.001310548323710    -0.001736309429812     0.003716344011021
   1  88
    -0.023080366483494     0.001653862373334     0.013199211649500
     0.000954068272933    -0.001451463164028     0.005234202102292
    -0.010319117158869    -0.004112797400707     0.013756157251509
   1  89
    -0.007987956089382    -0.009667675476694    -0.002066653835623
    -0.010367469577095    -0.016543873558140    -0.014047953649540
     0.001597771549804     0.010993016304562     0.013756157251509
   1  90
    -0.002046961020123    -0.020582940980407    -0.000252187703869
    -0.023422343641523    -0.040172283527632     0.001676503059938
     0.023929913847039     0.016838645744872     0.010134709050061
   2   1
    -0.011025652279088     0.000000000000000     0.006732304876101
     0.000000000000000     0.002553859210561    -0.000000000000000
    -0.006489714398262     0.000000000000000     0.042126736069143
   2   2
     0.545648740124091     0.000000000000000    -0.000000000000000
     0.000000000000000     0.545648740124091     0.000000000000002
    -0.000000000000000    -0.000000000000000    19.037466460051466
   2   3
    -0.011099873080950     0.000000000000000    -0.006718023363848
     0.000000000000000     0.002568097660961    -0.000000000000000
     0.006822269555348    -0.000000000000000     0.042177160410761
   2   4
    -0.003289032271884    -0.005497311104016    -0.000000000000000
     0.005497311104016    -0.003289032271884    -0.000000000000000
    -0.000000000000000    -0.000000000000000     0.021292728755124
   2   5
    -0.000848895024517     0.005918404940339     0.003359011681924
     0.005918404940339    -0.007682880395472    -0.005817978896310
    -0.003411134777674     0.005908258746396     0.042177160410761
   2   6
    -0.000841018661851    -0.005880100960509    -0.003366152438051
    -0.005880100960509    -0.007630774406675    -0.005830347048726
     0.003244857199131     0.005620257532201     0.042126736069143
   2   7
    -0.000848895024517    -0.005918404940339     0.003359011681924
    -0.005918404940339    -0.007682880395472     0.005817978896310
    -0.003411134777674    -0.005908258746396     0.042177160410761
   2   8
    -0.000841018661851     0.005880100960509    -0.003366152438051
     0.005880100960509    -0.007630774406675     0.005830347048726
     0.003244857199131    -0.005620257532201     0.042126736069143
   2   9
    -0.003289032271884     0.005497311104016     0.000000000000000
    -0.005497311104016    -0.003289032271884    -0.000000000000000
     0.000000000000000     0.000000000000000     0.021292728755124
   2  10
    -0.007513687972421     0.004298612559163    -0.000189230037353
     0.001188813266055     0.004193950449193     0.000086577066909
    -0.000701908094205     0.000831771737502     0.009163573581871
   2  11
     0.008780202002966     0.002732825171709     0.014329712356933
     0.002732825171709     0.005624607305898    -0.024819789860055
     0.034197928869090    -0.059232550314890     0.135135834858854
   2  12
    -0.006911680683948    -0.008732972313060    -0.003771271335630
    -0.008316904256087     0.003957549874398    -0.005843539744636
     0.008772925015630    -0.006075601939295     0.031060577375314
   2  13
    -0.000010447334046    -0.003131713782693    -0.000593277821513
     0.000378205878705    -0.009658850536901     0.001009447372989
     0.002466682154729    -0.003515914737994     0.009950987027593
   2  14
    -0.003987345907856     0.006986859908713    -0.000396430977625
     0.006986859908713    -0.012055076806027     0.000686638594941
     0.002161192001983    -0.003743294352346     0.009102060554018
   2  15
     0.003643165926800    -0.005252599335970     0.000019637079348
    -0.002142800042862    -0.006962903450028     0.000207166552962
    -0.000369381407724     0.001023756109455     0.009163573581871
   2  16
    -0.006142570885324    -0.008760950005359     0.006946289534693
    -0.009177018062332     0.003188440075774     0.000344246908902
     0.000875163114896    -0.010635376898679     0.031060577375314
   2  17
     0.017930127800761     0.053388240610520    -0.048120365410728
     0.053388240610520    -0.043717302375328     0.083346917770160
     0.057350639893244    -0.099334222141685     0.161476483757343
   2  18
    -0.008439053633374     0.005244463994516    -0.000577568158035
     0.001734544333117    -0.001230244237573     0.001018517351427
     0.001811530403278    -0.003894166778054     0.009950987027593
   2  19
    -0.006142570885324     0.008760950005359     0.006946289534693
     0.009177018062332     0.003188440075774    -0.000344246908902
     0.000875163114896     0.010635376898679     0.031060577375314
   2  20
     0.017930127800761    -0.053388240610520    -0.048120365410728
    -0.053388240610520    -0.043717302375328    -0.083346917770160
     0.057350639893244     0.099334222141685     0.161476483757343
   2  21
    -0.008439053633374    -0.005244463994516    -0.000577568158035
    -0.001734544333117    -0.001230244237573    -0.001018517351427
     0.001811530403278     0.003894166778054     0.009950987027593
   2  22
     0.003643165926800     0.005252599335970     0.000019637079348
     0.002142800042862    -0.006962903450028    -0.000207166552962
    -0.000369381407724    -0.001023756109455     0.009163573581871
   2  23
    -0.000010447334046     0.003131713782693    -0.000593277821513
    -0.000378205878705    -0.009658850536901    -0.001009447372989
     0.002466682154729     0.003515914737994     0.009950987027593
   2  24
    -0.003987345907856    -0.006986859908713    -0.000396430977625
    -0.006986859908713    -0.012055076806027    -0.000686638594941
     0.002161192001983     0.003743294352346     0.009102060554018
   2  25
     0.008780202002966    -0.002732825171709     0.014329712356933
    -0.002732825171709     0.005624607305898     0.024819789860055
     0.034197928869090     0.059232550314890     0.135135834858854
   2  26
    -0.006911680683948     0.008732972313060    -0.003771271335630
     0.008316904256087     0.003957549874398     0.005843539744636
     0.008772925015630     0.006075601939295     0.031060577375314
   2  27
    -0.007513687972421    -0.004298612559163    -0.000189230037353
    -0.001188813266055     0.004193950449193    -0.000086577066909
    -0.000701908094205    -0.000831771737502     0.009163573581871
   2  28
    -0.074541017463373     0.000000000000000     0.096240730821455
     0.000000000000000     0.048753842888805     0.000000000000000
    -0.114701279786488     0.000000000000000     0.161476483757343
   2  29
     0.004046809957363    -0.000000000000000    -0.028659424713866
    -0.000000000000000     0.010357999351500     0.000000000000000
    -0.068395857738180     0.000000000000000     0.135135834858854
   2  30
    -0.016088942255113     0.000000000000000     0.000792861955250
    -0.000000000000000     0.000046519541229     0.000000000000000
    -0.004322384003966    -0.000000000000000     0.009102060554018
   2  31
    -0.006054445839000     0.003111298285111     0.001170845979548
     0.006621217946510    -0.003614852031947     0.000009069978438
    -0.004278212558007    -0.000378252040060     0.009950987027593
   2  32
     0.008623055354947     0.000652079777758    -0.003175018199064
     0.000236011720785    -0.011577186164497    -0.006187786653537
    -0.009648088130526     0.004559774959384     0.031060577375314
   2  33
    -0.001109084239221    -0.004886512955471     0.000169592958005
    -0.007996312248579    -0.002210653284007     0.000120589486052
     0.001071289501929     0.000191984371953     0.009163573581871
   2  34
     0.008623055354947    -0.000652079777758    -0.003175018199064
    -0.000236011720785    -0.011577186164497     0.006187786653537
    -0.009648088130526    -0.004559774959384     0.031060577375314
   2  35
    -0.001109084239221     0.004886512955471     0.000169592958005
     0.007996312248579    -0.002210653284007    -0.000120589486052
     0.001071289501929    -0.000191984371953     0.009163573581871
   2  36
    -0.006054445839000    -0.003111298285111     0.001170845979548
    -0.006621217946510    -0.003614852031947    -0.000009069978438
    -0.004278212558007     0.000378252040060     0.009950987027593
   2  37
     0.026221023254735     0.000000000000000    -0.001784236930818
    -0.000000000000000     0.004931715473314    -0.000000000000000
     0.001612715043728    -0.000000000000000    -0.043222998607273
   2  38
    -0.647310256946406     0.000000000000000     0.000000000000000
     0.000000000000000    -0.647310256946406     0.000000000000000
    -0.000000000000000     0.000000000000000   -18.668355377044520
   2  39
     0.022371895814472    -0.000000000000000     0.006601152988577
    -0.000000000000000    -0.006992135269131    -0.000000000000000
    -0.005667044389027     0.000000000000000    -0.046385725367618
   2  40
     0.003719262828508     0.019949130390713     0.000000000000000
    -0.019949130390713     0.003719262828508    -0.000000000000000
     0.000000000000000     0.000000000000000    -0.021877511050272
   2  41
     0.000348872501769    -0.012714998437958    -0.003300576494289
    -0.012714998437958     0.015030888043571     0.005716766182375
     0.002833522194513    -0.004907804405271    -0.046385725367618
   2  42
     0.010254042418669     0.009218540683848     0.000892118465409
     0.009218540683848     0.020898696309380     0.001545194508459
    -0.000806357521864    -0.001396652196934    -0.043222998607273
   2  43
     0.000348872501769     0.012714998437958    -0.003300576494289
     0.012714998437958     0.015030888043571    -0.005716766182375
     0.002833522194513     0.004907804405271    -0.046385725367618
   2  44
     0.010254042418669    -0.009218540683848     0.000892118465409
    -0.009218540683848     0.020898696309380    -0.001545194508459
    -0.000806357521864     0.001396652196934    -0.043222998607273
   2  45
     0.003719262828508    -0.019949130390713    -0.000000000000000
     0.019949130390713     0.003719262828508    -0.000000000000000
    -0.000000000000000    -0.000000000000000    -0.021877511050272
   2  46
     0.011039357953161    -0.023525548305338     0.003418875020785
    -0.009746269233159     0.018121347840788    -0.020478980633918
    -0.004736840570413    -0.001293203479287    -0.051546516664557
   2  47
    -0.057723756879988     0.074741203357074     0.028636098243852
     0.074741203357074     0.028579950875539     0.049599177088886
    -0.024516358859724    -0.042463579161633    -0.129192299036712
   2  48
     0.018050974692053    -0.011117335870797    -0.009603126864174
     0.004906044826749     0.000154145027355     0.000434946693283
    -0.000923255781327    -0.015046518714783    -0.014048548399083
   2  49
    -0.010517910046985    -0.004666737314373     0.008866200831915
    -0.009859733194796     0.009318501042930    -0.004230732669638
     0.001284004459439     0.001768952130884    -0.012886103912581
   2  50
     0.007317920360752    -0.001290686980655     0.005178238317762
    -0.017314067678201     0.010887199358656    -0.008099078473498
    -0.012569039554857    -0.008322822318211    -0.014048548399083
   2  51
     0.003477590728356     0.006714184071661    -0.005158006175404
     0.006714184071661     0.011230462690681    -0.008933928761553
    -0.002154981943281    -0.003732538215156    -0.010368271799081
   2  52
     0.031664306362340     0.095311779267643     0.075569431961145
     0.095311779267643     0.141720869196571     0.130890095655823
    -0.062345546861849    -0.107985654790388    -0.282097111611125
   2  53
     0.030757969978091     0.001638276727480    -0.019444754982975
    -0.012141002344699    -0.001597264184142    -0.007278657696595