 3525

    1
0.0000000000e+00 0.0000000000e+00 0.0000000000e+00
0.0000000000e+00 0.0000000000e+00 0.0000000000e+00
     1      1      1
 1  1  1     0.0000000000e+00
 1  1  2     0.0000000000e+00
 1  1  3     0.0000000000e+00
 1  2  1     0.0000000000e+00
 1  2  2     0.0000000000e+00
 1  2  3     5.6977727046e+00
 1  3  1     0.0000000000e+00
 1  3  2     5.6977727046e+00
 1  3  3     0.0000000000e+00
 2  1  1     0.0000000000e+00
 2  1  2     0.0000000000e+00
 2  1  3     5.6977727046e+00
 2  2  1     0.0000000000e+00
 2  2  2     0.0000000000e+00
 2  2  3     0.0000000000e+00
 2  3  1     5.6977727046e+00
 2  3  2     0.0000000000e+00
 2  3  3     0.0000000000e+00
 3  1  1     0.0000000000e+00
 3  1  2     5.6977727046e+00
 3  1  3     0.0000000000e+00
 3  2  1     5.6977727046e+00
 3  2  2     0.0000000000e+00
 3  2  3     0.0000000000e+00
 3  3  1     0.0000000000e+00
 3  3  2     0.0000000000e+00
 3  3  3     0.0000000000e+00

    2
0.0000000000e+00 0.0000000000e+00 0.0000000000e+00
0.0000000000e+00 0.0000000000e+00 0.0000000000e+00
     1      1      2
 1  1  1    -1.1769421544e+00
 1  1  2    -2.8450185367e+00
 1  1  3    -2.8450185367e+00
 1  2  1    -2.8416870197e+00
 1  2  2    -2.8416870197e+00
 1  2  3    -3.5124945216e+00
 1  3  1    -2.8416870197e+00
 1  3  2    -3.5124945216e+00
 1  3  3    -2.8416870197e+00
 2  1  1    -2.8416870197e+00
 2  1  2    -2.8416870197e+00
 2  1  3    -3.5124945216e+00
 2  2  1    -2.8450185367e+00
 2  2  2    -1.1769421544e+00
 2  2  3    -2.8450185367e+00
 2  3  1    -3.5124945216e+00
 2  3  2    -2.8416870197e+00
 2  3  3    -2.8416870197e+00
 3  1  1    -2.8416870197e+00
 3  1  2    -3.5124945216e+00
 3  1  3    -2.8416870197e+00
 3  2  1    -3.5124945216e+00
 3  2  2    -2.8416870197e+00
 3  2  3    -2.8416870197e+00
 3  3  1    -2.8450185367e+00
 3  3  2    -2.8450185367e+00
 3  3  3    -1.1769421544e+00

    3
0.0000000000e+00 0.0000000000e+00 0.0000000000e+00
0.0000000000e+00 3.3507966074e+00 3.3507966074e+00
     1      1      1
 1  1  1     9.1156765306e-03
 1  1  2     3.4532450047e-02
 1  1  3     3.4532450047e-02
 1  2  1    -1.7726128693e-02
 1  2  2     5.7927339570e-02
 1  2  3     2.4835867356e-02
 1  3  1    -1.7726128693e-02
 1  3  2     2.4835867356e-02
 1  3  3     5.7927339570e-02
 2  1  1    -1.7726128693e-02
 2  1  2     5.7927339570e-02
 2  1  3     2.4835867356e-02
 2  2  1    -4.7716271057e-02
 2  2  2    -1.4010847583e-02
 2  2  3    -6.8690553504e-02
 2  3  1    -3.4420089534e-02
 2  3  2    -3.8307460537e-02
 2  3  3    -3.8307460537e-02
 3  1  1    -1.7726128693e-02
 3  1  2     2.4835867356e-02
 3  1  3     5.7927339570e-02
 3  2  1    -3.4420089534e-02
 3  2  2    -3.8307460537e-02
 3  2  3    -3.8307460537e-02
 3  3  1    -4.7716271057e-02
 3  3  2    -6.8690553504e-02
 3  3  3    -1.4010847583e-02

    4
0.0000000000e+00 0.0000000000e+00 0.0000000000e+00
0.0000000000e+00 -6.7015932147e+00 -6.7015932147e+00
     1      1      3
 1  1  1     5.2650562741e-03
 1  1  2     1.0666328752e-03
 1  1  3     1.0666328752e-03
 1  2  1    -1.0949430839e-02
 1  2  2    -9.7842472189e-03
 1  2  3     3.7046754776e-03
 1  3  1    -1.0949430839e-02
 1  3  2     3.7046754776e-03
 1  3  3    -9.7842472189e-03
 2  1  1    -1.0949430839e-02
 2  1  2    -9.7842472189e-03
 2  1  3     3.7046754776e-03
 2  2  1    -3.1416423268e-02
 2  2  2     8.9637934208e-03
 2  2  3    -1.1660212270e-02
 2  3  1    -6.3807139543e-03
 2  3  2    -8.5042486995e-03
 2  3  3    -8.5042486995e-03
 3  1  1    -1.0949430839e-02
 3  1  2     3.7046754776e-03
 3  1  3    -9.7842472189e-03
 3  2  1    -6.3807139543e-03
 3  2  2    -8.5042486995e-03
 3  2  3    -8.5042486995e-03
 3  3  1    -3.1416423268e-02
 3  3  2    -1.1660212270e-02
 3  3  3     8.9637934208e-03

    5
0.0000000000e+00 0.0000000000e+00 0.0000000000e+00
0.0000000000e+00 -3.3507966074e+00 -3.3507966074e+00
     1      1      1
 1  1  1     9.1156765306e-03
 1  1  2    -3.4532450047e-02
 1  1  3    -3.4532450047e-02
 1  2  1     1.7726128693e-02
 1  2  2     5.7927339570e-02
 1  2  3     2.4835867356e-02
 1  3  1     1.7726128693e-02
 1  3  2     2.4835867356e-02
 1  3  3     5.7927339570e-02
 2  1  1     1.7726128693e-02
 2  1  2     5.7927339570e-02
 2  1  3     2.4835867356e-02
 2  2  1    -4.7716271057e-02
 2  2  2     1.4010847583e-02
 2  2  3     6.8690553504e-02
 2  3  1    -3.4420089534e-02
 2  3  2     3.8307460537e-02
 2  3  3     3.8307460537e-02
 3  1  1     1.7726128693e-02
 3  1  2     2.4835867356e-02
 3  1  3     5.7927339570e-02
 3  2  1    -3.4420089534e-02
 3  2  2     3.8307460537e-02
 3  2  3     3.8307460537e-02
 3  3  1    -4.7716271057e-02
 3  3  2     6.8690553504e-02
 3  3  3     1.4010847583e-02

    6
0.0000000000e+00 0.0000000000e+00 0.0000000000e+00
0.0000000000e+00 -3.3507966074e+00 -3.3507966074e+00
     1      1      2
 1  1  1    -1.1769421544e+00
 1  1  2     2.8450185367e+00
 1  1  3     2.8450185367e+00
 1  2  1     2.8416870197e+00
 1  2  2    -2.8416870197e+00
 1  2  3    -3.5124945216e+00
 1  3  1     2.8416870197e+00
 1  3  2    -3.5124945216e+00
 1  3  3    -2.8416870197e+00
 2  1  1     2.8416870197e+00
 2  1  2    -2.8416870197e+00
 2  1  3    -3.5124945216e+00
 2  2  1    -2.8450185367e+00
 2  2  2     1.1769421544e+00
 2  2  3     2.8450185367e+00
 2  3  1    -3.5124945216e+00
 2  3  2     2.8416870197e+00
 2  3  3     2.8416870197e+00
 3  1  1     2.8416870197e+00
 3  1  2    -3.5124945216e+00
 3  1  3    -2.8416870197e+00
 3  2  1    -3.5124945216e+00
 3  2  2     2.8416870197e+00
 3  2  3     2.8416870197e+00
 3  3  1    -2.8450185367e+00
 3  3  2     2.8450185367e+00
 3  3  3     1.1769421544e+00

    7
0.0000000000e+00 0.0000000000e+00 0.0000000000e+00
0.0000000000e+00 -3.3507966074e+00 -3.3507966074e+00
     1      1      3
 1  1  1     5.2650562741e-03
 1  1  2    -1.0666328752e-03
 1  1  3    -1.0666328752e-03
 1  2  1     1.0949430839e-02
 1  2  2    -9.7842472189e-03
 1  2  3     3.7046754776e-03
 1  3  1     1.0949430839e-02
 1  3  2     3.7046754776e-03
 1  3  3    -9.7842472189e-03
 2  1  1     1.0949430839e-02
 2  1  2    -9.7842472189e-03
 2  1  3     3.7046754776e-03
 2  2  1    -3.1416423268e-02
 2  2  2    -8.9637934208e-03
 2  2  3     1.1660212270e-02
 2  3  1    -6.3807139543e-03
 2  3  2     8.5042486995e-03
 2  3  3     8.5042486995e-03
 3  1  1     1.0949430839e-02
 3  1  2     3.7046754776e-03
 3  1  3    -9.7842472189e-03
 3  2  1    -6.3807139543e-03
 3  2  2     8.5042486995e-03
 3  2  3     8.5042486995e-03
 3  3  1    -3.1416423268e-02
 3  3  2     1.1660212270e-02
 3  3  3    -8.9637934208e-03

    8
0.0000000000e+00 0.0000000000e+00 0.0000000000e+00
3.3507966074e+00 0.0000000000e+00 3.3507966074e+00
     1      1      1
 1  1  1    -1.4010847583e-02
 1  1  2    -4.7716271057e-02
 1  1  3    -6.8690553504e-02
 1  2  1     5.7927339570e-02
 1  2  2    -1.7726128693e-02
 1  2  3     2.4835867356e-02
 1  3  1    -3.8307460537e-02
 1  3  2    -3.4420089534e-02
 1  3  3    -3.8307460537e-02
 2  1  1     5.7927339570e-02
 2  1  2    -1.7726128693e-02
 2  1  3     2.4835867356e-02
 2  2  1     3.4532450047e-02
 2  2  2     9.1156765306e-03
 2  2  3     3.4532450047e-02
 2  3  1     2.4835867356e-02
 2  3  2    -1.7726128693e-02
 2  3  3     5.7927339570e-02
 3  1  1    -3.8307460537e-02
 3  1  2    -3.4420089534e-02
 3  1  3    -3.8307460537e-02
 3  2  1     2.4835867356e-02
 3  2  2    -1.7726128693e-02
 3  2  3     5.7927339570e-02
 3  3  1    -6.8690553504e-02
 3  3  2    -4.7716271057e-02
 3  3  3    -1.4010847583e-02

    9
0.0000000000e+00 0.0000000000e+00 0.0000000000e+00
3.3507966074e+00 -3.3507966074e+00 0.0000000000e+00
     1      1      1
 1  1  1    -1.4010847583e-02
 1  1  2     6.8690553504e-02
 1  1  3     4.7716271057e-02
 1  2  1     3.8307460537e-02
 1  2  2    -3.8307460537e-02
 1  2  3    -3.4420089534e-02
 1  3  1    -5.7927339570e-02
 1  3  2     2.4835867356e-02
 1  3  3    -1.7726128693e-02
 2  1  1     3.8307460537e-02
 2  1  2    -3.8307460537e-02
 2  1  3    -3.4420089534e-02
 2  2  1    -6.8690553504e-02
 2  2  2     1.4010847583e-02
 2  2  3     4.7716271057e-02
 2  3  1     2.4835867356e-02
 2  3  2    -5.7927339570e-02
 2  3  3     1.7726128693e-02
 3  1  1    -5.7927339570e-02
 3  1  2     2.4835867356e-02
 3  1  3    -1.7726128693e-02
 3  2  1     2.4835867356e-02
 3  2  2    -5.7927339570e-02
 3  2  3     1.7726128693e-02
 3  3  1     3.4532450047e-02
 3  3  2    -3.4532450047e-02
 3  3  3    -9.1156765306e-03

   10
0.0000000000e+00 0.0000000000e+00 0.0000000000e+00
3.3507966074e+00 -3.3507966074e+00 0.0000000000e+00
     1      1      2
 1  1  1    -4.7325467618e-02
 1  1  2    -2.5613752747e-02
 1  1  3     2.5613752747e-02
 1  2  1    -3.5919140579e-04
 1  2  2    -3.1079489597e-02
 1  2  3     5.3926721813e-03
 1  3  1     3.5919140579e-04
 1  3  2     5.3926721813e-03
 1  3  3    -3.1079489597e-02
 2  1  1    -3.5919140579e-04
 2  1  2    -3.1079489597e-02
 2  1  3     5.3926721813e-03
 2  2  1     6.5304190435e-03
 2  2  2    -1.5259948780e-02
 2  2  3     1.6390933564e-02
 2  3  1    -4.1808701596e-02
 2  3  2    -1.3256489314e-02
 2  3  3     1.3256489314e-02
 3  1  1     3.5919140579e-04
 3  1  2     5.3926721813e-03
 3  1  3    -3.1079489597e-02
 3  2  1    -4.1808701596e-02
 3  2  2    -1.3256489314e-02
 3  2  3     1.3256489314e-02
 3  3  1     6.5304190435e-03
 3  3  2    -1.6390933564e-02
 3  3  3     1.5259948780e-02

   11
0.0000000000e+00 0.0000000000e+00 0.0000000000e+00
-6.7015932147e+00 0.0000000000e+00 -6.7015932147e+00
     1      1      3
 1  1  1     8.9637934208e-03
 1  1  2    -3.1416423268e-02
 1  1  3    -1.1660212270e-02
 1  2  1    -9.7842472189e-03
 1  2  2    -1.0949430839e-02
 1  2  3     3.7046754776e-03
 1  3  1    -8.5042486995e-03
 1  3  2    -6.3807139543e-03
 1  3  3    -8.5042486995e-03
 2  1  1    -9.7842472189e-03
 2  1  2    -1.0949430839e-02
 2  1  3     3.7046754776e-03
 2  2  1     1.0666328752e-03
 2  2  2     5.2650562741e-03
 2  2  3     1.0666328752e-03
 2  3  1     3.7046754776e-03
 2  3  2    -1.0949430839e-02
 2  3  3    -9.7842472189e-03
 3  1  1    -8.5042486995e-03
 3  1  2    -6.3807139543e-03
 3  1  3    -8.5042486995e-03
 3  2  1     3.7046754776e-03
 3  2  2    -1.0949430839e-02
 3  2  3    -9.7842472189e-03
 3  3  1    -1.1660212270e-02
 3  3  2    -3.1416423268e-02
 3  3  3     8.9637934208e-03

   12
0.0000000000e+00 0.0000000000e+00 0.0000000000e+00
-6.7015932147e+00 -3.3507966074e+00 -1.0052389822e+01
     1      1      3
 1  1  1     8.9637934208e-03
 1  1  2     1.1660212270e-02
 1  1  3     3.1416423268e-02
 1  2  1     8.5042486995e-03
 1  2  2    -8.5042486995e-03
 1  2  3    -6.3807139543e-03
 1  3  1     9.7842472189e-03
 1  3  2     3.7046754776e-03
 1  3  3    -1.0949430839e-02
 2  1  1     8.5042486995e-03
 2  1  2    -8.5042486995e-03
 2  1  3    -6.3807139543e-03
 2  2  1    -1.1660212270e-02
 2  2  2    -8.9637934208e-03
 2  2  3     3.1416423268e-02
 2  3  1     3.7046754776e-03
 2  3  2     9.7842472189e-03
 2  3  3     1.0949430839e-02
 3  1  1     9.7842472189e-03
 3  1  2     3.7046754776e-03
 3  1  3    -1.0949430839e-02
 3  2  1     3.7046754776e-03
 3  2  2     9.7842472189e-03
 3  2  3     1.0949430839e-02
 3  3  1     1.0666328752e-03
 3  3  2    -1.0666328752e-03
 3  3  3    -5.2650562741e-03

   13
0.0000000000e+00 0.0000000000e+00 0.0000000000e+00
-3.3507966074e+00 0.0000000000e+00 -3.3507966074e+00
     1      1      1
 1  1  1     1.4010847583e-02
 1  1  2    -4.7716271057e-02
 1  1  3     6.8690553504e-02
 1  2  1     5.7927339570e-02
 1  2  2     1.7726128693e-02
 1  2  3     2.4835867356e-02
 1  3  1     3.8307460537e-02
 1  3  2    -3.4420089534e-02
 1  3  3     3.8307460537e-02
 2  1  1     5.7927339570e-02
 2  1  2     1.7726128693e-02
 2  1  3     2.4835867356e-02
 2  2  1    -3.4532450047e-02
 2  2  2     9.1156765306e-03
 2  2  3    -3.4532450047e-02
 2  3  1     2.4835867356e-02
 2  3  2     1.7726128693e-02
 2  3  3     5.7927339570e-02
 3  1  1     3.8307460537e-02
 3  1  2    -3.4420089534e-02
 3  1  3     3.8307460537e-02
 3  2  1     2.4835867356e-02
 3  2  2     1.7726128693e-02
 3  2  3     5.7927339570e-02
 3  3  1     6.8690553504e-02
 3  3  2    -4.7716271057e-02
 3  3  3     1.4010847583e-02

   14
0.0000000000e+00 0.0000000000e+00 0.0000000000e+00
-3.3507966074e+00 0.0000000000e+00 -3.3507966074e+00
     1      1      2
 1  1  1     1.1769421544e+00
 1  1  2    -2.8450185367e+00
 1  1  3     2.8450185367e+00
 1  2  1    -2.8416870197e+00
 1  2  2     2.8416870197e+00
 1  2  3    -3.5124945216e+00
 1  3  1     2.8416870197e+00
 1  3  2    -3.5124945216e+00
 1  3  3     2.8416870197e+00
 2  1  1    -2.8416870197e+00
 2  1  2     2.8416870197e+00
 2  1  3    -3.5124945216e+00
 2  2  1     2.8450185367e+00
 2  2  2    -1.1769421544e+00
 2  2  3     2.8450185367e+00
 2  3  1    -3.5124945216e+00
 2  3  2     2.8416870197e+00
 2  3  3    -2.8416870197e+00
 3  1  1     2.8416870197e+00
 3  1  2    -3.5124945216e+00
 3  1  3     2.8416870197e+00
 3  2  1    -3.5124945216e+00
 3  2  2     2.8416870197e+00
 3  2  3    -2.8416870197e+00
 3  3  1     2.8450185367e+00
 3  3  2    -2.8450185367e+00
 3  3  3     1.1769421544e+00

   15
0.0000000000e+00 0.0000000000e+00 0.0000000000e+00
-3.3507966074e+00 0.0000000000e+00 -3.3507966074e+00
     1      1      3
 1  1  1    -8.9637934208e-03
 1  1  2    -3.1416423268e-02
 1  1  3     1.1660212270e-02
 1  2  1    -9.7842472189e-03
 1  2  2     1.0949430839e-02
 1  2  3     3.7046754776e-03
 1  3  1     8.5042486995e-03
 1  3  2    -6.3807139543e-03
 1  3  3     8.5042486995e-03
 2  1  1    -9.7842472189e-03
 2  1  2     1.0949430839e-02
 2  1  3     3.7046754776e-03
 2  2  1    -1.0666328752e-03
 2  2  2     5.2650562741e-03
 2  2  3    -1.0666328752e-03
 2  3  1     3.7046754776e-03
 2  3  2     1.0949430839e-02
 2  3  3    -9.7842472189e-03
 3  1  1     8.5042486995e-03
 3  1  2    -6.3807139543e-03
 3  1  3     8.5042486995e-03
 3  2  1     3.7046754776e-03
 3  2  2     1.0949430839e-02
 3  2  3    -9.7842472189e-03
 3  3  1     1.1660212270e-02
 3  3  2    -3.1416423268e-02
 3  3  3    -8.9637934208e-03

   16
0.0000000000e+00 0.0000000000e+00 0.0000000000e+00
-3.3507966074e+00 3.3507966074e+00 0.0000000000e+00
     1      1      1
 1  1  1     1.4010847583e-02
 1  1  2    -6.8690553504e-02
 1  1  3     4.7716271057e-02
 1  2  1    -3.8307460537e-02
 1  2  2     3.8307460537e-02
 1  2  3    -3.4420089534e-02
 1  3  1    -5.7927339570e-02
 1  3  2     2.4835867356e-02
 1  3  3     1.7726128693e-02
 2  1  1    -3.8307460537e-02
 2  1  2     3.8307460537e-02
 2  1  3    -3.4420089534e-02
 2  2  1     6.8690553504e-02
 2  2  2    -1.4010847583e-02
 2  2  3     4.7716271057e-02
 2  3  1     2.4835867356e-02
 2  3  2    -5.7927339570e-02
 2  3  3    -1.7726128693e-02
 3  1  1    -5.7927339570e-02
 3  1  2     2.4835867356e-02
 3  1  3     1.7726128693e-02
 3  2  1     2.4835867356e-02
 3  2  2    -5.7927339570e-02
 3  2  3    -1.7726128693e-02
 3  3  1    -3.4532450047e-02
 3  3  2     3.4532450047e-02
 3  3  3    -9.1156765306e-03

   17
0.0000000000e+00 0.0000000000e+00 0.0000000000e+00
-3.3507966074e+00 3.3507966074e+00 0.0000000000e+00
     1      1      2
 1  1  1    -1.5259948780e-02
 1  1  2     6.5304190435e-03
 1  1  3     1.6390933564e-02
 1  2  1    -3.1079489597e-02
 1  2  2    -3.5919140579e-04
 1  2  3     5.3926721813e-03
 1  3  1    -1.3256489314e-02
 1  3  2    -4.1808701596e-02
 1  3  3     1.3256489314e-02
 2  1  1    -3.1079489597e-02
 2  1  2    -3.5919140579e-04
 2  1  3     5.3926721813e-03
 2  2  1    -2.5613752747e-02
 2  2  2    -4.7325467618e-02
 2  2  3     2.5613752747e-02
 2  3  1     5.3926721813e-03
 2  3  2     3.5919140579e-04
 2  3  3    -3.1079489597e-02
 3  1  1    -1.3256489314e-02
 3  1  2    -4.1808701596e-02
 3  1  3     1.3256489314e-02
 3  2  1     5.3926721813e-03
 3  2  2     3.5919140579e-04
 3  2  3    -3.1079489597e-02
 3  3  1    -1.6390933564e-02
 3  3  2     6.5304190435e-03
 3  3  3     1.5259948780e-02

   18
0.0000000000e+00 0.0000000000e+00 0.0000000000e+00
-3.3507966074e+00 -6.7015932147e+00 -1.0052389822e+01
     1      1      3
 1  1  1    -8.9637934208e-03
 1  1  2    -1.1660212270e-02
 1  1  3     3.1416423268e-02
 1  2  1    -8.5042486995e-03
 1  2  2     8.5042486995e-03
 1  2  3    -6.3807139543e-03
 1  3  1     9.7842472189e-03
 1  3  2     3.7046754776e-03
 1  3  3     1.0949430839e-02
 2  1  1    -8.5042486995e-03
 2  1  2     8.5042486995e-03
 2  1  3    -6.3807139543e-03
 2  2  1     1.1660212270e-02
 2  2  2     8.9637934208e-03
 2  2  3     3.1416423268e-02
 2  3  1     3.7046754776e-03
 2  3  2     9.7842472189e-03
 2  3  3    -1.0949430839e-02
 3  1  1     9.7842472189e-03
 3  1  2     3.7046754776e-03
 3  1  3     1.0949430839e-02
 3  2  1     3.7046754776e-03
 3  2  2     9.7842472189e-03
 3  2  3    -1.0949430839e-02
 3  3  1    -1.0666328752e-03
 3  3  2     1.0666328752e-03
 3  3  3    -5.2650562741e-03

   19
0.0000000000e+00 0.0000000000e+00 0.0000000000e+00
-3.3507966074e+00 -3.3507966074e+00 -6.7015932147e+00
     1      1      2
 1  1  1    -1.5259948780e-02
 1  1  2    -1.6390933564e-02
 1  1  3    -6.5304190435e-03
 1  2  1     1.3256489314e-02
 1  2  2     1.3256489314e-02
 1  2  3    -4.1808701596e-02
 1  3  1     3.1079489597e-02
 1  3  2     5.3926721813e-03
 1  3  3    -3.5919140579e-04
 2  1  1     1.3256489314e-02
 2  1  2     1.3256489314e-02
 2  1  3    -4.1808701596e-02
 2  2  1    -1.6390933564e-02
 2  2  2    -1.5259948780e-02
 2  2  3    -6.5304190435e-03
 2  3  1     5.3926721813e-03
 2  3  2     3.1079489597e-02
 2  3  3    -3.5919140579e-04
 3  1  1     3.1079489597e-02
 3  1  2     5.3926721813e-03
 3  1  3    -3.5919140579e-04
 3  2  1     5.3926721813e-03
 3  2  2     3.1079489597e-02
 3  2  3    -3.5919140579e-04
 3  3  1    -2.5613752747e-02
 3  3  2    -2.5613752747e-02
 3  3  3     4.7325467618e-02

   20
0.0000000000e+00 0.0000000000e+00 0.0000000000e+00
-3.3507966074e+00 -3.3507966074e+00 -6.7015932147e+00
     1      1      3
 1  1  1    -9.3567689955e-01
 1  1  2    -1.8225593595e+00
 1  1  3     1.8225593595e+00
 1  2  1    -1.6316439253e+00
 1  2  2    -1.6316439253e+00
 1  2  3     2.0874955958e+00
 1  3  1     1.6316439253e+00
 1  3  2     2.0874955958e+00
 1  3  3    -1.6316439253e+00
 2  1  1    -1.6316439253e+00
 2  1  2    -1.6316439253e+00
 2  1  3     2.0874955958e+00
 2  2  1    -1.8225593595e+00
 2  2  2    -9.3567689955e-01
 2  2  3     1.8225593595e+00
 2  3  1     2.0874955958e+00
 2  3  2     1.6316439253e+00
 2  3  3    -1.6316439253e+00
 3  1  1     1.6316439253e+00
 3  1  2     2.0874955958e+00
 3  1  3    -1.6316439253e+00
 3  2  1     2.0874955958e+00
 3  2  2     1.6316439253e+00
 3  2  3    -1.6316439253e+00
 3  3  1    -1.8225593595e+00
 3  3  2    -1.8225593595e+00
 3  3  3     9.3567689955e-01

   21
0.0000000000e+00 0.0000000000e+00 0.0000000000e+00
3.3507966074e+00 3.3507966074e+00 0.0000000000e+00
     1      1      1
 1  1  1    -1.4010847583e-02
 1  1  2    -6.8690553504e-02
 1  1  3    -4.7716271057e-02
 1  2  1    -3.8307460537e-02
 1  2  2    -3.8307460537e-02
 1  2  3    -3.4420089534e-02
 1  3  1     5.7927339570e-02
 1  3  2     2.4835867356e-02
 1  3  3    -1.7726128693e-02
 2  1  1    -3.8307460537e-02
 2  1  2    -3.8307460537e-02
 2  1  3    -3.4420089534e-02
 2  2  1    -6.8690553504e-02
 2  2  2    -1.4010847583e-02
 2  2  3    -4.7716271057e-02
 2  3  1     2.4835867356e-02
 2  3  2     5.7927339570e-02
 2  3  3    -1.7726128693e-02
 3  1  1     5.7927339570e-02
 3  1  2     2.4835867356e-02
 3  1  3    -1.7726128693e-02
 3  2  1     2.4835867356e-02
 3  2  2     5.7927339570e-02
 3  2  3    -1.7726128693e-02
 3  3  1     3.4532450047e-02
 3  3  2     3.4532450047e-02
 3  3  3     9.1156765306e-03

   22
0.0000000000e+00 0.0000000000e+00 0.0000000000e+00
3.3507966074e+00 0.0000000000e+00 -3.3507966074e+00
     1      1      1
 1  1  1    -1.4010847583e-02
 1  1  2     4.7716271057e-02
 1  1  3     6.8690553504e-02
 1  2  1    -5.7927339570e-02
 1  2  2    -1.7726128693e-02
 1  2  3     2.4835867356e-02
 1  3  1     3.8307460537e-02
 1  3  2    -3.4420089534e-02
 1  3  3    -3.8307460537e-02
 2  1  1    -5.7927339570e-02
 2  1  2    -1.7726128693e-02
 2  1  3     2.4835867356e-02
 2  2  1     3.4532450047e-02
 2  2  2    -9.1156765306e-03
 2  2  3    -3.4532450047e-02
 2  3  1     2.4835867356e-02
 2  3  2     1.7726128693e-02
 2  3  3    -5.7927339570e-02
 3  1  1     3.8307460537e-02
 3  1  2    -3.4420089534e-02
 3  1  3    -3.8307460537e-02
 3  2  1     2.4835867356e-02
 3  2  2     1.7726128693e-02
 3  2  3    -5.7927339570e-02
 3  3  1    -6.8690553504e-02
 3  3  2     4.7716271057e-02
 3  3  3     1.4010847583e-02

   23
0.0000000000e+00 0.0000000000e+00 0.0000000000e+00
3.3507966074e+00 0.0000000000e+00 -3.3507966074e+00
     1      1      2
 1  1  1    -4.7325467618e-02
 1  1  2     2.5613752747e-02
 1  1  3    -2.5613752747e-02
 1  2  1     3.5919140579e-04
 1  2  2    -3.1079489597e-02
 1  2  3     5.3926721813e-03
 1  3  1    -3.5919140579e-04
 1  3  2     5.3926721813e-03
 1  3  3    -3.1079489597e-02
 2  1  1     3.5919140579e-04
 2  1  2    -3.1079489597e-02
 2  1  3     5.3926721813e-03
 2  2  1     6.5304190435e-03
 2  2  2     1.5259948780e-02
 2  2  3    -1.6390933564e-02
 2  3  1    -4.1808701596e-02
 2  3  2     1.3256489314e-02
 2  3  3    -1.3256489314e-02
 3  1  1    -3.5919140579e-04
 3  1  2     5.3926721813e-03
 3  1  3    -3.1079489597e-02
 3  2  1    -4.1808701596e-02
 3  2  2     1.3256489314e-02
 3  2  3    -1.3256489314e-02
 3  3  1     6.5304190435e-03
 3  3  2     1.6390933564e-02
 3  3  3    -1.5259948780e-02

   24
0.0000000000e+00 0.0000000000e+00 0.0000000000e+00
6.7015932147e+00 0.0000000000e+00 0.0000000000e+00
     1      1      1
 1  1  1    -1.2398288861e-02
 1  1  2     0.0000000000e+00
 1  1  3     0.0000000000e+00
 1  2  1     0.0000000000e+00
 1  2  2     1.2907893387e-03
 1  2  3     1.4668801883e-02
 1  3  1     0.0000000000e+00
 1  3  2     1.4668801883e-02
 1  3  3     1.2907893387e-03
 2  1  1     0.0000000000e+00
 2  1  2     1.2907893387e-03
 2  1  3     1.4668801883e-02
 2  2  1     1.0030600445e-02
 2  2  2     0.0000000000e+00
 2  2  3     0.0000000000e+00
 2  3  1     1.2600456089e-03
 2  3  2     0.0000000000e+00
 2  3  3     0.0000000000e+00
 3  1  1     0.0000000000e+00
 3  1  2     1.4668801883e-02
 3  1  3     1.2907893387e-03
 3  2  1     1.2600456089e-03
 3  2  2     0.0000000000e+00
 3  2  3     0.0000000000e+00
 3  3  1     1.0030600445e-02
 3  3  2     0.0000000000e+00
 3  3  3     0.0000000000e+00

   25
0.0000000000e+00 0.0000000000e+00 0.0000000000e+00
0.0000000000e+00 3.3507966074e+00 -3.3507966074e+00
     1      1      1
 1  1  1    -9.1156765306e-03
 1  1  2     3.4532450047e-02
 1  1  3    -3.4532450047e-02
 1  2  1    -1.7726128693e-02
 1  2  2    -5.7927339570e-02
 1  2  3     2.4835867356e-02
 1  3  1     1.7726128693e-02
 1  3  2     2.4835867356e-02
 1  3  3    -5.7927339570e-02
 2  1  1    -1.7726128693e-02
 2  1  2    -5.7927339570e-02
 2  1  3     2.4835867356e-02
 2  2  1     4.7716271057e-02
 2  2  2    -1.4010847583e-02
 2  2  3     6.8690553504e-02
 2  3  1    -3.4420089534e-02
 2  3  2     3.8307460537e-02
 2  3  3    -3.8307460537e-02
 3  1  1     1.7726128693e-02
 3  1  2     2.4835867356e-02
 3  1  3    -5.7927339570e-02
 3  2  1    -3.4420089534e-02
 3  2  2     3.8307460537e-02
 3  2  3    -3.8307460537e-02
 3  3  1     4.7716271057e-02
 3  3  2    -6.8690553504e-02
 3  3  3     1.4010847583e-02

   26
0.0000000000e+00 0.0000000000e+00 0.0000000000e+00
0.0000000000e+00 3.3507966074e+00 -3.3507966074e+00
     1      1      2
 1  1  1     1.5259948780e-02
 1  1  2     6.5304190435e-03
 1  1  3    -1.6390933564e-02
 1  2  1    -3.1079489597e-02
 1  2  2     3.5919140579e-04
 1  2  3     5.3926721813e-03
 1  3  1     1.3256489314e-02
 1  3  2    -4.1808701596e-02
 1  3  3    -1.3256489314e-02
 2  1  1    -3.1079489597e-02
 2  1  2     3.5919140579e-04
 2  1  3     5.3926721813e-03
 2  2  1     2.5613752747e-02
 2  2  2    -4.7325467618e-02
 2  2  3    -2.5613752747e-02
 2  3  1     5.3926721813e-03
 2  3  2    -3.5919140579e-04
 2  3  3    -3.1079489597e-02
 3  1  1     1.3256489314e-02
 3  1  2    -4.1808701596e-02
 3  1  3    -1.3256489314e-02
 3  2  1     5.3926721813e-03
 3  2  2    -3.5919140579e-04
 3  2  3    -3.1079489597e-02
 3  3  1     1.6390933564e-02
 3  3  2     6.5304190435e-03
 3  3  3    -1.5259948780e-02

   27
0.0000000000e+00 0.0000000000e+00 0.0000000000e+00
0.0000000000e+00 6.7015932147e+00 0.0000000000e+00
     1      1      1
 1  1  1     0.0000000000e+00
 1  1  2     1.0030600445e-02
 1  1  3     0.0000000000e+00
 1  2  1     1.2907893387e-03
 1  2  2     0.0000000000e+00
 1  2  3     1.4668801883e-02
 1  3  1     0.0000000000e+00
 1  3  2     1.2600456089e-03
 1  3  3     0.0000000000e+00
 2  1  1     1.2907893387e-03
 2  1  2     0.0000000000e+00
 2  1  3     1.4668801883e-02
 2  2  1     0.0000000000e+00
 2  2  2    -1.2398288861e-02
 2  2  3     0.0000000000e+00
 2  3  1     1.4668801883e-02
 2  3  2     0.0000000000e+00
 2  3  3     1.2907893387e-03
 3  1  1     0.0000000000e+00
 3  1  2     1.2600456089e-03
 3  1  3     0.0000000000e+00
 3  2  1     1.4668801883e-02
 3  2  2     0.0000000000e+00
 3  2  3     1.2907893387e-03
 3  3  1     0.0000000000e+00
 3  3  2     1.0030600445e-02
 3  3  3     0.0000000000e+00

   28
0.0000000000e+00 0.0000000000e+00 0.0000000000e+00
0.0000000000e+00 0.0000000000e+00 -6.7015932147e+00
     1      1      1
 1  1  1     0.0000000000e+00
 1  1  2     0.0000000000e+00
 1  1  3    -1.0030600445e-02
 1  2  1     0.0000000000e+00
 1  2  2     0.0000000000e+00
 1  2  3     1.2600456089e-03
 1  3  1    -1.2907893387e-03
 1  3  2     1.4668801883e-02
 1  3  3     0.0000000000e+00
 2  1  1     0.0000000000e+00
 2  1  2     0.0000000000e+00
 2  1  3     1.2600456089e-03
 2  2  1     0.0000000000e+00
 2  2  2     0.0000000000e+00
 2  2  3    -1.0030600445e-02
 2  3  1     1.4668801883e-02
 2  3  2    -1.2907893387e-03
 2  3  3     0.0000000000e+00
 3  1  1    -1.2907893387e-03
 3  1  2     1.4668801883e-02
 3  1  3     0.0000000000e+00
 3  2  1     1.4668801883e-02
 3  2  2    -1.2907893387e-03
 3  2  3     0.0000000000e+00
 3  3  1     0.0000000000e+00
 3  3  2     0.0000000000e+00
 3  3  3     1.2398288861e-02

   29
0.0000000000e+00 0.0000000000e+00 0.0000000000e+00
0.0000000000e+00 0.0000000000e+00 -6.7015932147e+00
     1      1      2
 1  1  1     1.5259948780e-02
 1  1  2     1.6390933564e-02
 1  1  3    -6.5304190435e-03
 1  2  1    -1.3256489314e-02
 1  2  2    -1.3256489314e-02
 1  2  3    -4.1808701596e-02
 1  3  1     3.1079489597e-02
 1  3  2     5.3926721813e-03
 1  3  3     3.5919140579e-04
 2  1  1    -1.3256489314e-02
 2  1  2    -1.3256489314e-02
 2  1  3    -4.1808701596e-02
 2  2  1     1.6390933564e-02
 2  2  2     1.5259948780e-02
 2  2  3    -6.5304190435e-03
 2  3  1     5.3926721813e-03
 2  3  2     3.1079489597e-02
 2  3  3     3.5919140579e-04
 3  1  1     3.1079489597e-02
 3  1  2     5.3926721813e-03
 3  1  3     3.5919140579e-04
 3  2  1     5.3926721813e-03
 3  2  2     3.1079489597e-02
 3  2  3     3.5919140579e-04
 3  3  1     2.5613752747e-02
 3  3  2     2.5613752747e-02
 3  3  3     4.7325467618e-02

   30
0.0000000000e+00 0.0000000000e+00 0.0000000000e+00
-6.7015932147e+00 -6.7015932147e+00 0.0000000000e+00
     1      1      3
 1  1  1     8.9637934208e-03
 1  1  2    -1.1660212270e-02
 1  1  3    -3.1416423268e-02
 1  2  1    -8.5042486995e-03
 1  2  2    -8.5042486995e-03
 1  2  3    -6.3807139543e-03
 1  3  1    -9.7842472189e-03
 1  3  2     3.7046754776e-03
 1  3  3    -1.0949430839e-02
 2  1  1    -8.5042486995e-03
 2  1  2    -8.5042486995e-03
 2  1  3    -6.3807139543e-03
 2  2  1    -1.1660212270e-02
 2  2  2     8.9637934208e-03
 2  2  3    -3.1416423268e-02
 2  3  1     3.7046754776e-03
 2  3  2    -9.7842472189e-03
 2  3  3    -1.0949430839e-02
 3  1  1    -9.7842472189e-03
 3  1  2     3.7046754776e-03
 3  1  3    -1.0949430839e-02
 3  2  1     3.7046754776e-03
 3  2  2    -9.7842472189e-03
 3  2  3    -1.0949430839e-02
 3  3  1     1.0666328752e-03
 3  3  2     1.0666328752e-03
 3  3  3     5.2650562741e-03

   31
0.0000000000e+00 0.0000000000e+00 0.0000000000e+00
-6.7015932147e+00 -1.0052389822e+01 -3.3507966074e+00
     1      1      3
 1  1  1     8.9637934208e-03
 1  1  2     3.1416423268e-02
 1  1  3     1.1660212270e-02
 1  2  1     9.7842472189e-03
 1  2  2    -1.0949430839e-02
 1  2  3     3.7046754776e-03
 1  3  1     8.5042486995e-03
 1  3  2    -6.3807139543e-03
 1  3  3    -8.5042486995e-03
 2  1  1     9.7842472189e-03
 2  1  2    -1.0949430839e-02
 2  1  3     3.7046754776e-03
 2  2  1     1.0666328752e-03
 2  2  2    -5.2650562741e-03
 2  2  3    -1.0666328752e-03
 2  3  1     3.7046754776e-03
 2  3  2     1.0949430839e-02
 2  3  3     9.7842472189e-03
 3  1  1     8.5042486995e-03
 3  1  2    -6.3807139543e-03
 3  1  3    -8.5042486995e-03
 3  2  1     3.7046754776e-03
 3  2  2     1.0949430839e-02
 3  2  3     9.7842472189e-03
 3  3  1    -1.1660212270e-02
 3  3  2     3.1416423268e-02
 3  3  3    -8.9637934208e-03

   32
0.0000000000e+00 0.0000000000e+00 0.0000000000e+00
-1.0052389822e+01 -6.7015932147e+00 -3.3507966074e+00
     1      1      3
 1  1  1    -5.2650562741e-03
 1  1  2     1.0666328752e-03
 1  1  3    -1.0666328752e-03
 1  2  1    -1.0949430839e-02
 1  2  2     9.7842472189e-03
 1  2  3     3.7046754776e-03
 1  3  1     1.0949430839e-02
 1  3  2     3.7046754776e-03
 1  3  3     9.7842472189e-03
 2  1  1    -1.0949430839e-02
 2  1  2     9.7842472189e-03
 2  1  3     3.7046754776e-03
 2  2  1     3.1416423268e-02
 2  2  2     8.9637934208e-03
 2  2  3     1.1660212270e-02
 2  3  1    -6.3807139543e-03
 2  3  2     8.5042486995e-03
 2  3  3    -8.5042486995e-03
 3  1  1     1.0949430839e-02
 3  1  2     3.7046754776e-03
 3  1  3     9.7842472189e-03
 3  2  1    -6.3807139543e-03