  81
   1   1
     8.868238724617623    -0.000000000000000     0.000000000000001
    -0.000000000000000     8.868238724617624     0.000000000000001
     0.000000000000001     0.000000000000001     8.868238724617621
   1   2
     0.033397345332560    -0.030990015345672    -0.030990015345672
     0.030990015345672    -0.024621649947273    -0.085305892412431
     0.030990015345672    -0.085305892412431    -0.024621649947273
   1   3
     0.033397345332560     0.030990015345672     0.030990015345672
    -0.030990015345672    -0.024621649947273    -0.085305892412431
    -0.030990015345672    -0.085305892412431    -0.024621649947273
   1   4
    -0.024621649947273     0.030990015345672    -0.085305892412431
    -0.030990015345672     0.033397345332560    -0.030990015345672
    -0.085305892412431     0.030990015345672    -0.024621649947273
   1   5
     0.004286466257891     0.003939291877990    -0.003939291877990
     0.003939291877990     0.004286466257891    -0.003939291877990
    -0.003939291877990    -0.003939291877990     0.004286466257891
   1   6
    -0.024621649947273     0.085305892412431    -0.030990015345672
     0.085305892412431    -0.024621649947273     0.030990015345672
     0.030990015345672    -0.030990015345672     0.033397345332560
   1   7
    -0.024621649947273    -0.030990015345672    -0.085305892412431
     0.030990015345672     0.033397345332560     0.030990015345672
    -0.085305892412431    -0.030990015345672    -0.024621649947273
   1   8
    -0.024621649947273     0.085305892412431     0.030990015345672
     0.085305892412431    -0.024621649947273    -0.030990015345672
    -0.030990015345672     0.030990015345672     0.033397345332560
   1   9
     0.004286466257891     0.003939291877990    -0.003939291877990
     0.003939291877990     0.004286466257891    -0.003939291877990
    -0.003939291877990    -0.003939291877990     0.004286466257891
   1  10
    -0.024621649947273    -0.085305892412431     0.030990015345672
    -0.085305892412431    -0.024621649947273     0.030990015345672
    -0.030990015345672    -0.030990015345672     0.033397345332560
   1  11
     0.004286466257891    -0.003939291877990     0.003939291877990
    -0.003939291877990     0.004286466257891    -0.003939291877990
     0.003939291877990    -0.003939291877990     0.004286466257891
   1  12
    -0.024621649947273    -0.030990015345672     0.085305892412431
     0.030990015345672     0.033397345332560    -0.030990015345672
     0.085305892412431     0.030990015345672    -0.024621649947273
   1  13
     0.004286466257891    -0.003939291877990    -0.003939291877990
    -0.003939291877990     0.004286466257891     0.003939291877990
    -0.003939291877990     0.003939291877990     0.004286466257891
   1  14
     0.004286466257891     0.003939291877990     0.003939291877990
     0.003939291877990     0.004286466257891     0.003939291877990
     0.003939291877990     0.003939291877990     0.004286466257891
   1  15
    -0.042619108518728    -0.000000000000000    -0.000000000000000
     0.000000000000000    -0.032204486292022     0.000000000000000
     0.000000000000000     0.000000000000000    -0.032204486292022
   1  16
     0.033397345332560     0.030990015345672    -0.030990015345672
    -0.030990015345672    -0.024621649947273     0.085305892412431
     0.030990015345672     0.085305892412431    -0.024621649947273
   1  17
    -0.032204486292022     0.000000000000000     0.000000000000000
     0.000000000000000    -0.042619108518728    -0.000000000000000
    -0.000000000000000    -0.000000000000000    -0.032204486292022
   1  18
    -0.032204486292022    -0.000000000000000    -0.000000000000000
     0.000000000000000    -0.032204486292022    -0.000000000000000
     0.000000000000000    -0.000000000000000    -0.042619108518728
   1  19
    -0.024621649947273    -0.085305892412431    -0.030990015345672
    -0.085305892412431    -0.024621649947273    -0.030990015345672
     0.030990015345672     0.030990015345672     0.033397345332560
   1  20
    -0.024621649947273     0.030990015345672     0.085305892412431
    -0.030990015345672     0.033397345332560     0.030990015345672
     0.085305892412431    -0.030990015345672    -0.024621649947273
   1  21
     0.004286466257891    -0.003939291877990     0.003939291877990
    -0.003939291877990     0.004286466257891    -0.003939291877990
     0.003939291877990    -0.003939291877990     0.004286466257891
   1  22
     0.033397345332560    -0.030990015345672     0.030990015345672
     0.030990015345672    -0.024621649947273     0.085305892412431
    -0.030990015345672     0.085305892412431    -0.024621649947273
   1  23
    -0.032204486292022     0.000000000000000    -0.000000000000000
     0.000000000000000    -0.032204486292022    -0.000000000000000
     0.000000000000000     0.000000000000000    -0.042619108518728
   1  24
    -0.032204486292022     0.000000000000000     0.000000000000000
     0.000000000000000    -0.042619108518728    -0.000000000000000
    -0.000000000000000    -0.000000000000000    -0.032204486292022
   1  25
     0.004286466257891    -0.003939291877990    -0.003939291877990
    -0.003939291877990     0.004286466257891     0.003939291877990
    -0.003939291877990     0.003939291877990     0.004286466257891
   1  26
    -0.042619108518728     0.000000000000000    -0.000000000000000
     0.000000000000000    -0.032204486292022    -0.000000000000000
     0.000000000000000    -0.000000000000000    -0.032204486292022
   1  27
     0.004286466257891     0.003939291877990     0.003939291877990
     0.003939291877990     0.004286466257891     0.003939291877990
     0.003939291877990     0.003939291877990     0.004286466257891
   1  28
    -1.309993178781374    -1.541329883261953    -1.541329883261952
    -1.541329883261953    -1.309993178781375    -1.541329883261952
    -1.541329883261952    -1.541329883261953    -1.309993178781374
   1  29
     0.009482570601733    -0.000000000000000    -0.000000000000000
    -0.000000000000000     0.018058538420659    -0.010792924354641
     0.000000000000000    -0.010792924354641     0.018058538420659
   1  30
    -1.309993178781374     1.541329883261952     1.541329883261952
     1.541329883261952    -1.309993178781375    -1.541329883261953
     1.541329883261952    -1.541329883261953    -1.309993178781375
   1  31
     0.018058538420659    -0.000000000000000    -0.010792924354641
    -0.000000000000000     0.009482570601733    -0.000000000000000
    -0.010792924354641    -0.000000000000000     0.018058538420659
   1  32
     0.018058538420659     0.010792924354641     0.000000000000000
     0.010792924354641     0.018058538420659    -0.000000000000000
     0.000000000000000    -0.000000000000000     0.009482570601733
   1  33
    -0.004147973265809     0.005789790324355    -0.005789790324355
    -0.038940458828291    -0.026158527985541    -0.037962088208171
     0.038940458828291    -0.037962088208171    -0.026158527985541
   1  34
    -1.309993178781374     1.541329883261953    -1.541329883261952
     1.541329883261953    -1.309993178781374     1.541329883261952
    -1.541329883261953     1.541329883261953    -1.309993178781374
   1  35
    -0.026158527985541    -0.038940458828291    -0.037962088208171
     0.005789790324355    -0.004147973265809    -0.005789790324355
    -0.037962088208171     0.038940458828291    -0.026158527985541
   1  36
    -0.026158527985541     0.037962088208171     0.038940458828291
     0.037962088208171    -0.026158527985541     0.038940458828291
    -0.005789790324355    -0.005789790324355    -0.004147973265809
   1  37
     0.018058538420659    -0.010792924354641     0.000000000000000
    -0.010792924354641     0.018058538420659     0.000000000000000
     0.000000000000000    -0.000000000000000     0.009482570601733
   1  38
     0.018058538420659    -0.000000000000000     0.010792924354641
    -0.000000000000000     0.009482570601733     0.000000000000000
     0.010792924354641    -0.000000000000000     0.018058538420659
   1  39
    -0.004147973265809    -0.005789790324355     0.005789790324355
     0.038940458828291    -0.026158527985541    -0.037962088208171
    -0.038940458828291    -0.037962088208171    -0.026158527985541
   1  40
     0.009482570601733     0.000000000000000    -0.000000000000000
     0.000000000000000     0.018058538420659     0.010792924354641
     0.000000000000000     0.010792924354641     0.018058538420659
   1  41
     0.000816269891511    -0.005418559264232    -0.005418559264232
    -0.005418559264233     0.000816269891511    -0.005418559264232
    -0.005418559264232    -0.005418559264233     0.000816269891511
   1  42
     0.000816269891511     0.005418559264232     0.005418559264232
     0.005418559264233     0.000816269891511    -0.005418559264233
     0.005418559264232    -0.005418559264233     0.000816269891511
   1  43
    -0.026158527985541     0.038940458828291    -0.037962088208171
    -0.005789790324355    -0.004147973265809     0.005789790324355
    -0.037962088208171    -0.038940458828291    -0.026158527985541
   1  44
     0.000816269891511     0.005418559264233    -0.005418559264232
     0.005418559264233     0.000816269891511     0.005418559264233
    -0.005418559264232     0.005418559264232     0.000816269891511
   1  45
    -0.026158527985541     0.037962088208171    -0.038940458828291
     0.037962088208171    -0.026158527985541    -0.038940458828291
     0.005789790324355     0.005789790324355    -0.004147973265809
   1  46
    -1.309993178781375    -1.541329883261953     1.541329883261952
    -1.541329883261952    -1.309993178781374     1.541329883261952
     1.541329883261952     1.541329883261953    -1.309993178781375
   1  47
    -0.026158527985541    -0.037962088208171    -0.038940458828291
    -0.037962088208171    -0.026158527985541     0.038940458828291
     0.005789790324355    -0.005789790324355    -0.004147973265809
   1  48
    -0.026158527985541     0.038940458828291     0.037962088208171
    -0.005789790324355    -0.004147973265809    -0.005789790324355
     0.037962088208171     0.038940458828291    -0.026158527985541
   1  49
    -0.026158527985541    -0.037962088208171     0.038940458828291
    -0.037962088208171    -0.026158527985541    -0.038940458828291
    -0.005789790324355     0.005789790324355    -0.004147973265809
   1  50
     0.000816269891511    -0.005418559264232     0.005418559264232
    -0.005418559264232     0.000816269891511     0.005418559264233
     0.005418559264232     0.005418559264232     0.000816269891511
   1  51
    -0.026158527985541    -0.038940458828291     0.037962088208171
     0.005789790324355    -0.004147973265809     0.005789790324355
     0.037962088208171    -0.038940458828291    -0.026158527985541
   1  52
    -0.004147973265809    -0.005789790324355    -0.005789790324355
     0.038940458828291    -0.026158527985541     0.037962088208171
     0.038940458828291     0.037962088208171    -0.026158527985541
   1  53
    -0.004147973265809     0.005789790324355     0.005789790324355
    -0.038940458828291    -0.026158527985541     0.037962088208171
    -0.038940458828291     0.037962088208171    -0.026158527985541
   1  54
    -0.028976260120222     0.000000000000000     0.000000000000000
     0.000000000000000    -0.028976260120222     0.000000000000000
     0.000000000000000    -0.000000000000000    -0.028976260120222
   1  55
    -0.009661009852750    -0.000000000000000    -0.000000000000000
     0.000000000000000    -0.009661009852750    -0.000000000000000
    -0.000000000000000    -0.000000000000000    -0.009661009852750
   1  56
     0.002659088372558    -0.003422308432595    -0.003422308432595
     0.011629785230175    -0.006468157570650     0.006327456643100
     0.011629785230175     0.006327456643100    -0.006468157570650
   1  57
     0.002659088372558     0.003422308432595     0.003422308432595
    -0.011629785230175    -0.006468157570650     0.006327456643100
    -0.011629785230175     0.006327456643100    -0.006468157570650
   1  58
    -0.006468157570650     0.011629785230175     0.006327456643100
    -0.003422308432595     0.002659088372558    -0.003422308432595
     0.006327456643100     0.011629785230175    -0.006468157570650
   1  59
     0.007974233270042    -0.002791922737167     0.002791922737167
    -0.002791922737167     0.007974233270042     0.002791922737167
     0.002791922737167     0.002791922737167     0.007974233270042
   1  60
    -0.006468157570650    -0.006327456643100    -0.011629785230175
    -0.006327456643100    -0.006468157570650     0.011629785230175
     0.003422308432595    -0.003422308432595     0.002659088372558
   1  61
    -0.006468157570650    -0.011629785230175     0.006327456643100
     0.003422308432595     0.002659088372558     0.003422308432595
     0.006327456643100    -0.011629785230175    -0.006468157570650
   1  62
    -0.006468157570650    -0.006327456643100     0.011629785230175
    -0.006327456643100    -0.006468157570650    -0.011629785230175
    -0.003422308432595     0.003422308432595     0.002659088372558
   1  63
    -0.798755584881008    -0.652775259382253     0.652775259382252
    -0.652775259382253    -0.798755584881008     0.652775259382253
     0.652775259382253     0.652775259382253    -0.798755584881008
   1  64
    -0.006468157570650     0.006327456643100     0.011629785230175
     0.006327456643100    -0.006468157570650     0.011629785230175
    -0.003422308432595    -0.003422308432595     0.002659088372558
   1  65
     0.007974233270042     0.002791922737167    -0.002791922737167
     0.002791922737167     0.007974233270042     0.002791922737167
    -0.002791922737167     0.002791922737167     0.007974233270042
   1  66
    -0.006468157570650    -0.011629785230175    -0.006327456643100
     0.003422308432595     0.002659088372558    -0.003422308432595
    -0.006327456643100     0.011629785230175    -0.006468157570650
   1  67
     0.007974233270042     0.002791922737167     0.002791922737167
     0.002791922737167     0.007974233270042    -0.002791922737167
     0.002791922737167    -0.002791922737167     0.007974233270042
   1  68
     0.007974233270042    -0.002791922737167    -0.002791922737167
    -0.002791922737167     0.007974233270042    -0.002791922737167
    -0.002791922737167    -0.002791922737167     0.007974233270042
   1  69
    -0.013399836958274    -0.000000000000000    -0.000000000000000
     0.000000000000000     0.003985974247455    -0.002370575483928
     0.000000000000000    -0.002370575483928     0.003985974247455
   1  70
     0.002659088372558     0.003422308432595    -0.003422308432595
    -0.011629785230175    -0.006468157570650    -0.006327456643100
     0.011629785230175    -0.006327456643100    -0.006468157570650
   1  71
     0.003985974247455    -0.000000000000000    -0.002370575483928
    -0.000000000000000    -0.013399836958274     0.000000000000000
    -0.002370575483928    -0.000000000000000     0.003985974247455
   1  72
     0.003985974247455     0.002370575483928     0.000000000000000
     0.002370575483928     0.003985974247455     0.000000000000000
     0.000000000000000    -0.000000000000000    -0.013399836958274
   1  73
    -0.006468157570650     0.006327456643100    -0.011629785230175
     0.006327456643100    -0.006468157570650    -0.011629785230175
     0.003422308432595     0.003422308432595     0.002659088372558
   1  74
    -0.006468157570650     0.011629785230175    -0.006327456643100
    -0.003422308432595     0.002659088372558     0.003422308432595
    -0.006327456643100    -0.011629785230175    -0.006468157570650
   1  75
    -0.798755584881008     0.652775259382253    -0.652775259382253
     0.652775259382253    -0.798755584881008     0.652775259382253
    -0.652775259382253     0.652775259382253    -0.798755584881008
   1  76
     0.002659088372558    -0.003422308432595     0.003422308432595
     0.011629785230175    -0.006468157570650    -0.006327456643100
    -0.011629785230175    -0.006327456643100    -0.006468157570650
   1  77
     0.003985974247455    -0.002370575483928     0.000000000000000
    -0.002370575483928     0.003985974247455    -0.000000000000000
     0.000000000000000    -0.000000000000000    -0.013399836958274
   1  78
     0.003985974247455     0.000000000000000     0.002370575483928
     0.000000000000000    -0.013399836958274     0.000000000000000
     0.002370575483928    -0.000000000000000     0.003985974247455
   1  79
    -0.798755584881008     0.652775259382253     0.652775259382253
     0.652775259382253    -0.798755584881008    -0.652775259382253
     0.652775259382253    -0.652775259382253    -0.798755584881008
   1  80
    -0.013399836958274    -0.000000000000000    -0.000000000000000
    -0.000000000000000     0.003985974247455     0.002370575483928
     0.000000000000000     0.002370575483928     0.003985974247455
   1  81
    -0.798755584881008    -0.652775259382253    -0.652775259382253
    -0.652775259382253    -0.798755584881009    -0.652775259382253
    -0.652775259382253    -0.652775259382253    -0.798755584881008
   2   1
     0.033397345332560     0.030990015345672     0.030990015345672
    -0.030990015345672    -0.024621649947273    -0.085305892412431
    -0.030990015345672    -0.085305892412431    -0.024621649947273
   2   2
     8.868238724617621    -0.000000000000001    -0.000000000000001
    -0.000000000000001     8.868238724617624    -0.000000000000000
    -0.000000000000000    -0.000000000000000     8.868238724617623
   2   3
     0.033397345332560    -0.030990015345672    -0.030990015345672
     0.030990015345672    -0.024621649947273    -0.085305892412431
     0.030990015345672    -0.085305892412431    -0.024621649947273
   2   4
    -0.024621649947273     0.085305892412431    -0.030990015345672
     0.085305892412431    -0.024621649947273     0.030990015345672
     0.030990015345672    -0.030990015345672     0.033397345332560
   2   5
    -0.024621649947273     0.030990015345672    -0.085305892412431
    -0.030990015345672     0.033397345332560    -0.030990015345672
    -0.085305892412431     0.030990015345672    -0.024621649947273
   2   6
     0.004286466257891     0.003939291877990    -0.003939291877990
     0.003939291877990     0.004286466257891    -0.003939291877990
    -0.003939291877990    -0.003939291877990     0.004286466257891
   2   7
     0.004286466257891     0.003939291877990    -0.003939291877990
     0.003939291877990     0.004286466257891    -0.003939291877990
    -0.003939291877990    -0.003939291877990     0.004286466257891
   2   8
    -0.024621649947273    -0.030990015345672    -0.085305892412431
     0.030990015345672     0.033397345332560     0.030990015345672
    -0.085305892412431    -0.030990015345672    -0.024621649947273
   2   9
    -0.024621649947273     0.085305892412431     0.030990015345672
     0.085305892412431    -0.024621649947273    -0.030990015345672
    -0.030990015345672     0.030990015345672     0.033397345332560
   2  10
    -0.024621649947273    -0.030990015345672     0.085305892412431
     0.030990015345672     0.033397345332560    -0.030990015345672
     0.085305892412431     0.030990015345672    -0.024621649947273
   2  11
    -0.024621649947273    -0.085305892412431     0.030990015345672
    -0.085305892412431    -0.024621649947273     0.030990015345672
    -0.030990015345672    -0.030990015345672     0.033397345332560
   2  12
     0.004286466257891    -0.003939291877990     0.003939291877990
    -0.003939291877990     0.004286466257891    -0.003939291877990
     0.003939291877990    -0.003939291877990     0.004286466257891
   2  13
    -0.042619108518728     0.000000000000000     0.000000000000000
     0.000000000000000    -0.032204486292022    -0.000000000000000
    -0.000000000000000    -0.000000000000000    -0.032204486292022
   2  14
     0.004286466257891    -0.003939291877990    -0.003939291877990
    -0.003939291877990     0.004286466257891     0.003939291877990
    -0.003939291877990     0.003939291877990     0.004286466257891
   2  15
     0.004286466257891     0.003939291877990     0.003939291877990
     0.003939291877990     0.004286466257891     0.003939291877990
     0.003939291877990     0.003939291877990     0.004286466257891
   2  16
    -0.032204486292022     0.000000000000000     0.000000000000000
    -0.000000000000000    -0.032204486292022    -0.000000000000000
     0.000000000000000    -0.000000000000000    -0.042619108518728
   2  17
     0.033397345332560     0.030990015345672    -0.030990015345672
    -0.030990015345672    -0.024621649947273     0.085305892412431
     0.030990015345672     0.085305892412431    -0.024621649947273
   2  18
    -0.032204486292022     0.000000000000000     0.000000000000000
    -0.000000000000000    -0.042619108518728     0.000000000000000
     0.000000000000000    -0.000000000000000    -0.032204486292022
   2  19
     0.004286466257891    -0.003939291877990     0.003939291877990
    -0.003939291877990     0.004286466257891    -0.003939291877990
     0.003939291877990    -0.003939291877990     0.004286466257891
   2  20
    -0.024621649947273    -0.085305892412431    -0.030990015345672
    -0.085305892412431    -0.024621649947273    -0.030990015345672
     0.030990015345672     0.030990015345672     0.033397345332560
   2  21
    -0.024621649947273     0.030990015345672     0.085305892412431
    -0.030990015345672     0.033397345332560     0.030990015345672
     0.085305892412431    -0.030990015345672    -0.024621649947273
   2  22
    -0.032204486292022     0.000000000000000     0.000000000000000
     0.000000000000000    -0.042619108518728     0.000000000000000
    -0.000000000000000    -0.000000000000000    -0.032204486292022
   2  23
     0.033397345332560    -0.030990015345672     0.030990015345672
     0.030990015345672    -0.024621649947273     0.085305892412431
    -0.030990015345672     0.085305892412431    -0.024621649947273
   2  24
    -0.032204486292022     0.000000000000000     0.000000000000000
     0.000000000000000    -0.032204486292022     0.000000000000000
    -0.000000000000000     0.000000000000000    -0.042619108518728
   2  25
     0.004286466257891     0.003939291877990     0.003939291877990
     0.003939291877990     0.004286466257891     0.003939291877990
     0.003939291877990     0.003939291877990     0.004286466257891
   2  26
     0.004286466257891    -0.003939291877990    -0.003939291877990
    -0.003939291877990     0.004286466257891     0.003939291877990
    -0.003939291877990     0.003939291877990     0.004286466257891
   2  27
    -0.042619108518728     0.000000000000000     0.000000000000000
    -0.000000000000000    -0.032204486292022     0.000000000000000
     0.000000000000000    -0.000000000000000    -0.032204486292022
   2  28
    -1.309993178781374     1.541329883261953     1.541329883261952
     1.541329883261952    -1.309993178781375    -1.541329883261953
     1.541329883261952    -1.541329883261953    -1.309993178781374
   2  29
    -1.309993178781374    -1.541329883261953    -1.541329883261952
    -1.541329883261952    -1.309993178781375    -1.541329883261953
    -1.541329883261952    -1.541329883261953    -1.309993178781375
   2  30
     0.009482570601733     0.000000000000000    -0.000000000000000
    -0.000000000000000     0.018058538420659    -0.010792924354641
    -0.000000000000000    -0.010792924354641     0.018058538420659
   2  31
    -0.004147973265809     0.005789790324355    -0.005789790324355
    -0.038940458828291    -0.026158527985541    -0.037962088208171
     0.038940458828291    -0.037962088208171    -0.026158527985541
   2  32
     0.018058538420659     0.000000000000000    -0.010792924354641
    -0.000000000000000     0.009482570601733     0.000000000000000
    -0.010792924354641    -0.000000000000000     0.018058538420659
   2  33
     0.018058538420659     0.010792924354641     0.000000000000000
     0.010792924354641     0.018058538420659     0.000000000000000
    -0.000000000000000     0.000000000000000     0.009482570601733
   2  34
    -0.026158527985541     0.037962088208171     0.038940458828291
     0.037962088208171    -0.026158527985541     0.038940458828291
    -0.005789790324355    -0.005789790324355    -0.004147973265809
   2  35
    -1.309993178781375     1.541329883261953    -1.541329883261953
     1.541329883261953    -1.309993178781375     1.541329883261952
    -1.541329883261952     1.541329883261952    -1.309993178781375
   2  36
    -0.026158527985541    -0.038940458828291    -0.037962088208171
     0.005789790324355    -0.004147973265809    -0.005789790324355
    -0.037962088208171     0.038940458828291    -0.026158527985541
   2  37
    -0.004147973265809    -0.005789790324355     0.005789790324355
     0.038940458828291    -0.026158527985541    -0.037962088208171
    -0.038940458828291    -0.037962088208171    -0.026158527985541
   2  38
     0.018058538420659    -0.010792924354641    -0.000000000000000
    -0.010792924354641     0.018058538420659     0.000000000000000
    -0.000000000000000     0.000000000000000     0.009482570601733
   2  39
     0.018058538420659     0.000000000000000     0.010792924354641
    -0.000000000000000     0.009482570601733     0.000000000000000
     0.010792924354641     0.000000000000000     0.018058538420659
   2  40
     0.000816269891511     0.005418559264233     0.005418559264232
     0.005418559264232     0.000816269891511    -0.005418559264232
     0.005418559264232    -0.005418559264233     0.000816269891511
   2  41
     0.009482570601733     0.000000000000000     0.000000000000000
    -0.000000000000000     0.018058538420659     0.010792924354641
     0.000000000000000     0.010792924354641     0.018058538420659
   2  42
     0.000816269891511    -0.005418559264232    -0.005418559264232
    -0.005418559264232     0.000816269891511    -0.005418559264233
    -0.005418559264232    -0.005418559264232     0.000816269891511
   2  43
    -0.026158527985541     0.037962088208171    -0.038940458828291
     0.037962088208171    -0.026158527985541    -0.038940458828291
     0.005789790324355     0.005789790324355    -0.004147973265809
   2  44
    -0.026158527985541     0.038940458828291    -0.037962088208171
    -0.005789790324355    -0.004147973265809     0.005789790324355
    -0.037962088208171    -0.038940458828291    -0.026158527985541
   2  45
     0.000816269891511     0.005418559264233    -0.005418559264232
     0.005418559264232     0.000816269891511     0.005418559264233
    -0.005418559264232     0.005418559264233     0.000816269891511
   2  46
    -0.026158527985541     0.038940458828291     0.037962088208171
    -0.005789790324355    -0.004147973265809    -0.005789790324355
     0.037962088208171     0.038940458828291    -0.026158527985541
   2  47
    -1.309993178781374    -1.541329883261953     1.541329883261952
    -1.541329883261953    -1.309993178781374     1.541329883261952
     1.541329883261952     1.541329883261953    -1.309993178781374
   2  48
    -0.026158527985541    -0.037962088208171    -0.038940458828291
    -0.037962088208171    -0.026158527985541     0.038940458828291
     0.005789790324355    -0.005789790324355    -0.004147973265809
   2  49
    -0.026158527985541    -0.038940458828291     0.037962088208171
     0.005789790324355    -0.004147973265809     0.005789790324355
     0.037962088208171    -0.038940458828291    -0.026158527985541
   2  50
    -0.026158527985541    -0.037962088208171     0.038940458828291
    -0.037962088208171    -0.026158527985541    -0.038940458828291
    -0.005789790324355     0.005789790324355    -0.004147973265809
   2  51
     0.000816269891511    -0.005418559264232     0.005418559264232
    -0.005418559264232     0.000816269891511     0.005418559264232
     0.005418559264232     0.005418559264232     0.000816269891511
   2  52
    -0.028976260120222    -0.000000000000000     0.000000000000000
    -0.000000000000000    -0.028976260120222    -0.000000000000000
     0.000000000000000    -0.000000000000000    -0.028976260120222
   2  53
    -0.004147973265809    -0.005789790324355    -0.005789790324355
     0.038940458828291    -0.026158527985541     0.037962088208171
     0.038940458828291     0.037962088208171    -0.026158527985541
   2  54
    -0.004147973265809     0.005789790324355     0.005789790324355
    -0.038940458828291    -0.026158527985541     0.037962088208171
    -0.038940458828291     0.037962088208171    -0.026158527985541
   2  55
     0.002659088372558     0.003422308432595     0.003422308432595
    -0.011629785230175    -0.006468157570650     0.006327456643100
    -0.011629785230175     0.006327456643100    -0.006468157570650
   2  56
    -0.009661009852750     0.000000000000000     0.000000000000000
    -0.000000000000000    -0.009661009852750     0.000000000000000
     0.000000000000000    -0.000000000000000    -0.009661009852750
   2  57
     0.002659088372558    -0.003422308432595    -0.003422308432595
     0.011629785230175    -0.006468157570650     0.006327456643100
     0.011629785230175     0.006327456643100    -0.006468157570650
   2  58
    -0.006468157570650    -0.006327456643100    -0.011629785230175
    -0.006327456643100    -0.006468157570650     0.011629785230175
     0.003422308432595    -0.003422308432595     0.002659088372558
   2  59
    -0.006468157570650     0.011629785230175     0.006327456643100
    -0.003422308432595     0.002659088372558    -0.003422308432595
     0.006327456643100     0.011629785230175    -0.006468157570650
   2  60
     0.007974233270042    -0.002791922737167     0.002791922737167
    -0.002791922737167     0.007974233270042     0.002791922737167
     0.002791922737167     0.002791922737167     0.007974233270042
   2  61
    -0.798755584881008    -0.652775259382253     0.652775259382253
    -0.652775259382253    -0.798755584881008     0.652775259382253
     0.652775259382253     0.652775259382253    -0.798755584881008
   2  62
    -0.006468157570650    -0.011629785230175     0.006327456643100
     0.003422308432595     0.002659088372558     0.003422308432595